 Entering Gaussian System, Link 0=g09
 Input=acceptor-nature.com
 Output=acceptor-nature.log
 Initial command:
 /home/user/programs/g09/l1.exe "/home/user/fernando/foster/Gau-29772.inp" -scrdir="/home/user/fernando/foster/"
 Entering Link 1 = /home/user/programs/g09/l1.exe PID=     29774.
  
 Copyright (c) 1988,1990,1992,1993,1995,1998,2003,2009,2013,
            Gaussian, Inc.  All Rights Reserved.
  
 This is part of the Gaussian(R) 09 program.  It is based on
 the Gaussian(R) 03 system (copyright 2003, Gaussian, Inc.),
 the Gaussian(R) 98 system (copyright 1998, Gaussian, Inc.),
 the Gaussian(R) 94 system (copyright 1995, Gaussian, Inc.),
 the Gaussian 92(TM) system (copyright 1992, Gaussian, Inc.),
 the Gaussian 90(TM) system (copyright 1990, Gaussian, Inc.),
 the Gaussian 88(TM) system (copyright 1988, Gaussian, Inc.),
 the Gaussian 86(TM) system (copyright 1986, Carnegie Mellon
 University), and the Gaussian 82(TM) system (copyright 1983,
 Carnegie Mellon University). Gaussian is a federally registered
 trademark of Gaussian, Inc.
  
 This software contains proprietary and confidential information,
 including trade secrets, belonging to Gaussian, Inc.
  
 This software is provided under written license and may be
 used, copied, transmitted, or stored only in accord with that
 written license.
  
 The following legend is applicable only to US Government
 contracts under FAR:
  
                    RESTRICTED RIGHTS LEGEND
  
 Use, reproduction and disclosure by the US Government is
 subject to restrictions as set forth in subparagraphs (a)
 and (c) of the Commercial Computer Software - Restricted
 Rights clause in FAR 52.227-19.
  
 Gaussian, Inc.
 340 Quinnipiac St., Bldg. 40, Wallingford CT 06492
  
  
 ---------------------------------------------------------------
 Warning -- This program may not be used in any manner that
 competes with the business of Gaussian, Inc. or will provide
 assistance to any competitor of Gaussian, Inc.  The licensee
 of this program is prohibited from giving any competitor of
 Gaussian, Inc. access to this program.  By using this program,
 the user acknowledges that Gaussian, Inc. is engaged in the
 business of creating and licensing software in the field of
 computational chemistry and represents and warrants to the
 licensee that it is not a competitor of Gaussian, Inc. and that
 it will not use this program in any manner prohibited above.
 ---------------------------------------------------------------
  

 Cite this work as:
 Gaussian 09, Revision D.01,
 M. J. Frisch, G. W. Trucks, H. B. Schlegel, G. E. Scuseria, 
 M. A. Robb, J. R. Cheeseman, G. Scalmani, V. Barone, B. Mennucci, 
 G. A. Petersson, H. Nakatsuji, M. Caricato, X. Li, H. P. Hratchian, 
 A. F. Izmaylov, J. Bloino, G. Zheng, J. L. Sonnenberg, M. Hada, 
 M. Ehara, K. Toyota, R. Fukuda, J. Hasegawa, M. Ishida, T. Nakajima, 
 Y. Honda, O. Kitao, H. Nakai, T. Vreven, J. A. Montgomery, Jr., 
 J. E. Peralta, F. Ogliaro, M. Bearpark, J. J. Heyd, E. Brothers, 
 K. N. Kudin, V. N. Staroverov, T. Keith, R. Kobayashi, J. Normand, 
 K. Raghavachari, A. Rendell, J. C. Burant, S. S. Iyengar, J. Tomasi, 
 M. Cossi, N. Rega, J. M. Millam, M. Klene, J. E. Knox, J. B. Cross, 
 V. Bakken, C. Adamo, J. Jaramillo, R. Gomperts, R. E. Stratmann, 
 O. Yazyev, A. J. Austin, R. Cammi, C. Pomelli, J. W. Ochterski, 
 R. L. Martin, K. Morokuma, V. G. Zakrzewski, G. A. Voth, 
 P. Salvador, J. J. Dannenberg, S. Dapprich, A. D. Daniels, 
 O. Farkas, J. B. Foresman, J. V. Ortiz, J. Cioslowski, 
 and D. J. Fox, Gaussian, Inc., Wallingford CT, 2013.
 
 ******************************************
 Gaussian 09:  ES64L-G09RevD.01 24-Apr-2013
                24-May-2019 
 ******************************************
 %NProcShared=6
 Will use up to    6 processors via shared memory.
 %Chk=a-nature.chk
 --------------------------------
 #n CAM-B3LYP/6-31G(d,p) Opt Freq
 --------------------------------
 1/14=-1,18=20,19=15,26=3,38=1/1,3;
 2/9=110,12=2,17=6,18=5,40=1/2;
 3/5=1,6=6,7=101,11=2,16=1,25=1,30=1,71=1,74=-40/1,2,3;
 4//1;
 5/5=2,38=5/2;
 6/7=2,8=2,9=2,10=2,28=1/1;
 7//1,2,3,16;
 1/14=-1,18=20,19=15,26=3/3(2);
 2/9=110/2;
 99//99;
 2/9=110/2;
 3/5=1,6=6,7=101,11=2,16=1,25=1,30=1,71=1,74=-40/1,2,3;
 4/5=5,16=3,69=1/1;
 5/5=2,38=5/2;
 7//1,2,3,16;
 1/14=-1,18=20,19=15,26=3/3(-5);
 2/9=110/2;
 6/7=2,8=2,9=2,10=2,19=2,28=1/1;
 99/9=1/99;
 ---------------------------------
 Acceptor Nature Comunication 2018
 ---------------------------------
 Symbolic Z-matrix:
 Charge =  0 Multiplicity = 1
 C                    -1.28758   2.55125  -0.22559 
 C                    -0.88147   1.17631  -0.28077 
 C                     0.58292   1.14007  -0.43924 
 N                     0.92427   2.51015  -0.47822 
 C                    -0.20272   3.32165  -0.32612 
 O                     1.28556   0.15798  -0.56156 
 C                    -1.97009   0.40665  -0.2147 
 N                    -3.10589   1.21913  -0.12536 
 C                    -2.75544   2.58957  -0.11965 
 O                    -3.46104   3.57693  -0.10048 
 C                    -4.48911   0.79712  -0.24027 
 C                    -4.99863  -0.06922   0.91072 
 H                    -4.60135   0.27405  -1.19696 
 H                    -5.11766   1.69341  -0.3103 
 C                    -6.48362  -0.38778   0.71763 
 H                    -4.8483    0.44915   1.86519 
 H                    -4.43508  -1.00512   0.96707 
 C                    -6.98801  -1.38761   1.74434 
 H                    -6.65119  -0.79734  -0.28576 
 H                    -7.07115   0.53497   0.79128 
 H                    -6.46175  -2.34293   1.6492 
 H                    -8.05623  -1.57501   1.59505 
 H                    -6.8455   -1.01393   2.7627 
 C                    -1.97129  -1.05082  -0.25314 
 C                    -2.47377  -1.74839  -1.35777 
 C                    -1.44951  -1.7717    0.83064 
 C                    -1.44662  -3.16895   0.81857 
 C                    -1.96076  -3.86251  -0.28197 
 C                    -2.47271  -3.14773  -1.37189 
 H                    -2.86504  -1.21071  -2.21852 
 H                    -1.04161  -1.25249   1.69607 
 H                    -1.03797  -3.71166   1.66914 
 H                    -2.86903  -3.66998  -2.23944 
 C                    -1.94011  -5.34481  -0.24807 
 O                    -1.52517  -6.03199   0.66663 
 O                    -2.44768  -5.8997   -1.36275 
 H                    -2.36399  -6.86296  -1.2008 
 C                     2.24775   2.9509   -0.8737 
 C                     3.19938   3.16408   0.30093 
 H                     2.16162   3.86443  -1.47329 
 H                     2.66624   2.18236  -1.53595 
 C                     4.61393   3.45743  -0.20371 
 H                     3.21279   2.27585   0.94397 
 H                     2.84834   3.99587   0.91946 
 C                     5.54909   3.85221   0.92667 
 H                     4.58952   4.26659  -0.94324 
 H                     5.01363   2.57049  -0.70971 
 H                     5.2164    4.78142   1.40032 
 H                     6.56061   4.01376   0.54044 
 H                     5.59626   3.0715    1.69183 
 C                    -0.18648   4.77902  -0.29776 
 C                    -0.74832   5.52476  -1.34073 
 C                    -0.76206   6.92289  -1.28451 
 C                    -0.21572   7.58797  -0.18048 
 C                     0.343     6.8457    0.86564 
 C                     0.35068   5.4495    0.80882 
 H                     0.76493   4.89008   1.64521 
 H                    -1.19327   5.02626  -2.19954 
 H                    -1.21213   7.48146  -2.1018 
 H                     0.7618    7.35007   1.73465 
 C                    -0.2166    9.06646  -0.06842 
 O                    -0.81439   9.66947  -1.11072 
 O                     0.25724   9.71128   0.8487 
 H                    -0.75475   10.62374  -0.89491 
 

 GradGradGradGradGradGradGradGradGradGradGradGradGradGradGradGradGradGrad
 Berny optimization.
 Initialization pass.
                           ----------------------------
                           !    Initial Parameters    !
                           ! (Angstroms and Degrees)  !
 --------------------------                            --------------------------
 ! Name  Definition              Value          Derivative Info.                !
 --------------------------------------------------------------------------------
 ! R1    R(1,2)                  1.4347         estimate D2E/DX2                !
 ! R2    R(1,5)                  1.3344         estimate D2E/DX2                !
 ! R3    R(1,9)                  1.4722         estimate D2E/DX2                !
 ! R4    R(2,3)                  1.4734         estimate D2E/DX2                !
 ! R5    R(2,7)                  1.3349         estimate D2E/DX2                !
 ! R6    R(3,4)                  1.4125         estimate D2E/DX2                !
 ! R7    R(3,6)                  1.2137         estimate D2E/DX2                !
 ! R8    R(4,5)                  1.3971         estimate D2E/DX2                !
 ! R9    R(4,38)                 1.4499         estimate D2E/DX2                !
 ! R10   R(5,51)                 1.4577         estimate D2E/DX2                !
 ! R11   R(7,8)                  1.3993         estimate D2E/DX2                !
 ! R12   R(7,24)                 1.458          estimate D2E/DX2                !
 ! R13   R(8,9)                  1.4146         estimate D2E/DX2                !
 ! R14   R(8,11)                 1.4507         estimate D2E/DX2                !
 ! R15   R(9,10)                 1.2137         estimate D2E/DX2                !
 ! R16   R(11,12)                1.528          estimate D2E/DX2                !
 ! R17   R(11,13)                1.0961         estimate D2E/DX2                !
 ! R18   R(11,14)                1.097          estimate D2E/DX2                !
 ! R19   R(12,15)                1.531          estimate D2E/DX2                !
 ! R20   R(12,16)                1.0965         estimate D2E/DX2                !
 ! R21   R(12,17)                1.0939         estimate D2E/DX2                !
 ! R22   R(15,18)                1.5193         estimate D2E/DX2                !
 ! R23   R(15,19)                1.0966         estimate D2E/DX2                !
 ! R24   R(15,20)                1.0964         estimate D2E/DX2                !
 ! R25   R(18,21)                1.0948         estimate D2E/DX2                !
 ! R26   R(18,22)                1.0948         estimate D2E/DX2                !
 ! R27   R(18,23)                1.0941         estimate D2E/DX2                !
 ! R28   R(24,25)                1.3997         estimate D2E/DX2                !
 ! R29   R(24,26)                1.4023         estimate D2E/DX2                !
 ! R30   R(25,29)                1.3994         estimate D2E/DX2                !
 ! R31   R(25,30)                1.0877         estimate D2E/DX2                !
 ! R32   R(26,27)                1.3973         estimate D2E/DX2                !
 ! R33   R(26,31)                1.0885         estimate D2E/DX2                !
 ! R34   R(27,28)                1.3988         estimate D2E/DX2                !
 ! R35   R(27,32)                1.0886         estimate D2E/DX2                !
 ! R36   R(28,29)                1.4003         estimate D2E/DX2                !
 ! R37   R(28,34)                1.4828         estimate D2E/DX2                !
 ! R38   R(29,33)                1.0874         estimate D2E/DX2                !
 ! R39   R(34,35)                1.217          estimate D2E/DX2                !
 ! R40   R(34,36)                1.3446         estimate D2E/DX2                !
 ! R41   R(36,37)                0.9804         estimate D2E/DX2                !
 ! R42   R(38,39)                1.5267         estimate D2E/DX2                !
 ! R43   R(38,40)                1.0961         estimate D2E/DX2                !
 ! R44   R(38,41)                1.0974         estimate D2E/DX2                !
 ! R45   R(39,42)                1.5303         estimate D2E/DX2                !
 ! R46   R(39,43)                1.0966         estimate D2E/DX2                !
 ! R47   R(39,44)                1.0944         estimate D2E/DX2                !
 ! R48   R(42,45)                1.5193         estimate D2E/DX2                !
 ! R49   R(42,46)                1.0965         estimate D2E/DX2                !
 ! R50   R(42,47)                1.0966         estimate D2E/DX2                !
 ! R51   R(45,48)                1.0947         estimate D2E/DX2                !
 ! R52   R(45,49)                1.0947         estimate D2E/DX2                !
 ! R53   R(45,50)                1.0942         estimate D2E/DX2                !
 ! R54   R(51,52)                1.3998         estimate D2E/DX2                !
 ! R55   R(51,56)                1.4009         estimate D2E/DX2                !
 ! R56   R(52,53)                1.3993         estimate D2E/DX2                !
 ! R57   R(52,58)                1.0881         estimate D2E/DX2                !
 ! R58   R(53,54)                1.3999         estimate D2E/DX2                !
 ! R59   R(53,59)                1.0874         estimate D2E/DX2                !
 ! R60   R(54,55)                1.3991         estimate D2E/DX2                !
 ! R61   R(54,61)                1.4827         estimate D2E/DX2                !
 ! R62   R(55,56)                1.3974         estimate D2E/DX2                !
 ! R63   R(55,60)                1.0886         estimate D2E/DX2                !
 ! R64   R(56,57)                1.0882         estimate D2E/DX2                !
 ! R65   R(61,62)                1.3444         estimate D2E/DX2                !
 ! R66   R(61,63)                1.2171         estimate D2E/DX2                !
 ! R67   R(62,64)                0.9802         estimate D2E/DX2                !
 ! A1    A(2,1,5)              108.679          estimate D2E/DX2                !
 ! A2    A(2,1,9)              108.0557         estimate D2E/DX2                !
 ! A3    A(5,1,9)              143.2278         estimate D2E/DX2                !
 ! A4    A(1,2,3)              108.0013         estimate D2E/DX2                !
 ! A5    A(1,2,7)              108.6517         estimate D2E/DX2                !
 ! A6    A(3,2,7)              143.2925         estimate D2E/DX2                !
 ! A7    A(2,3,4)              102.6678         estimate D2E/DX2                !
 ! A8    A(2,3,6)              127.3089         estimate D2E/DX2                !
 ! A9    A(4,3,6)              129.9532         estimate D2E/DX2                !
 ! A10   A(3,4,5)              111.4363         estimate D2E/DX2                !
 ! A11   A(3,4,38)             121.5317         estimate D2E/DX2                !
 ! A12   A(5,4,38)             126.119          estimate D2E/DX2                !
 ! A13   A(1,5,4)              109.1891         estimate D2E/DX2                !
 ! A14   A(1,5,51)             125.7887         estimate D2E/DX2                !
 ! A15   A(4,5,51)             125.019          estimate D2E/DX2                !
 ! A16   A(2,7,8)              109.2887         estimate D2E/DX2                !
 ! A17   A(2,7,24)             125.1524         estimate D2E/DX2                !
 ! A18   A(8,7,24)             125.5512         estimate D2E/DX2                !
 ! A19   A(7,8,9)              111.2035         estimate D2E/DX2                !
 ! A20   A(7,8,11)             126.866          estimate D2E/DX2                !
 ! A21   A(9,8,11)             121.2226         estimate D2E/DX2                !
 ! A22   A(1,9,8)              102.7978         estimate D2E/DX2                !
 ! A23   A(1,9,10)             127.0104         estimate D2E/DX2                !
 ! A24   A(8,9,10)             130.1032         estimate D2E/DX2                !
 ! A25   A(8,11,12)            115.0363         estimate D2E/DX2                !
 ! A26   A(8,11,13)            107.7934         estimate D2E/DX2                !
 ! A27   A(8,11,14)            108.2828         estimate D2E/DX2                !
 ! A28   A(12,11,13)           110.6546         estimate D2E/DX2                !
 ! A29   A(12,11,14)           108.6792         estimate D2E/DX2                !
 ! A30   A(13,11,14)           105.9928         estimate D2E/DX2                !
 ! A31   A(11,12,15)           110.2669         estimate D2E/DX2                !
 ! A32   A(11,12,16)           109.9944         estimate D2E/DX2                !
 ! A33   A(11,12,17)           110.6146         estimate D2E/DX2                !
 ! A34   A(15,12,16)           109.9457         estimate D2E/DX2                !
 ! A35   A(15,12,17)           109.1573         estimate D2E/DX2                !
 ! A36   A(16,12,17)           106.7974         estimate D2E/DX2                !
 ! A37   A(12,15,18)           111.9451         estimate D2E/DX2                !
 ! A38   A(12,15,19)           109.9571         estimate D2E/DX2                !
 ! A39   A(12,15,20)           109.6443         estimate D2E/DX2                !
 ! A40   A(18,15,19)           108.7729         estimate D2E/DX2                !
 ! A41   A(18,15,20)           109.3031         estimate D2E/DX2                !
 ! A42   A(19,15,20)           107.0915         estimate D2E/DX2                !
 ! A43   A(15,18,21)           110.8506         estimate D2E/DX2                !
 ! A44   A(15,18,22)           110.1477         estimate D2E/DX2                !
 ! A45   A(15,18,23)           111.1619         estimate D2E/DX2                !
 ! A46   A(21,18,22)           107.9273         estimate D2E/DX2                !
 ! A47   A(21,18,23)           108.4395         estimate D2E/DX2                !
 ! A48   A(22,18,23)           108.2096         estimate D2E/DX2                !
 ! A49   A(7,24,25)            121.2841         estimate D2E/DX2                !
 ! A50   A(7,24,26)            119.5512         estimate D2E/DX2                !
 ! A51   A(25,24,26)           119.1625         estimate D2E/DX2                !
 ! A52   A(24,25,29)           120.399          estimate D2E/DX2                !
 ! A53   A(24,25,30)           120.4833         estimate D2E/DX2                !
 ! A54   A(29,25,30)           119.1168         estimate D2E/DX2                !
 ! A55   A(24,26,27)           120.5397         estimate D2E/DX2                !
 ! A56   A(24,26,31)           120.5754         estimate D2E/DX2                !
 ! A57   A(27,26,31)           118.8848         estimate D2E/DX2                !
 ! A58   A(26,27,28)           120.1226         estimate D2E/DX2                !
 ! A59   A(26,27,32)           119.5088         estimate D2E/DX2                !
 ! A60   A(28,27,32)           120.368          estimate D2E/DX2                !
 ! A61   A(27,28,29)           119.5821         estimate D2E/DX2                !
 ! A62   A(27,28,34)           118.2001         estimate D2E/DX2                !
 ! A63   A(29,28,34)           122.2178         estimate D2E/DX2                !
 ! A64   A(25,29,28)           120.1877         estimate D2E/DX2                !
 ! A65   A(25,29,33)           119.2105         estimate D2E/DX2                !
 ! A66   A(28,29,33)           120.6012         estimate D2E/DX2                !
 ! A67   A(28,34,35)           125.9008         estimate D2E/DX2                !
 ! A68   A(28,34,36)           112.8496         estimate D2E/DX2                !
 ! A69   A(35,34,36)           121.249          estimate D2E/DX2                !
 ! A70   A(34,36,37)           103.6685         estimate D2E/DX2                !
 ! A71   A(4,38,39)            113.6755         estimate D2E/DX2                !
 ! A72   A(4,38,40)            109.3189         estimate D2E/DX2                !
 ! A73   A(4,38,41)            107.4455         estimate D2E/DX2                !
 ! A74   A(39,38,40)           110.6999         estimate D2E/DX2                !
 ! A75   A(39,38,41)           108.9282         estimate D2E/DX2                !
 ! A76   A(40,38,41)           106.4704         estimate D2E/DX2                !
 ! A77   A(38,39,42)           110.4407         estimate D2E/DX2                !
 ! A78   A(38,39,43)           110.2229         estimate D2E/DX2                !
 ! A79   A(38,39,44)           109.9401         estimate D2E/DX2                !
 ! A80   A(42,39,43)           109.7146         estimate D2E/DX2                !
 ! A81   A(42,39,44)           109.706          estimate D2E/DX2                !
 ! A82   A(43,39,44)           106.7454         estimate D2E/DX2                !
 ! A83   A(39,42,45)           111.9284         estimate D2E/DX2                !
 ! A84   A(39,42,46)           110.0788         estimate D2E/DX2                !
 ! A85   A(39,42,47)           109.5154         estimate D2E/DX2                !
 ! A86   A(45,42,46)           108.891          estimate D2E/DX2                !
 ! A87   A(45,42,47)           109.2166         estimate D2E/DX2                !
 ! A88   A(46,42,47)           107.0846         estimate D2E/DX2                !
 ! A89   A(42,45,48)           110.8188         estimate D2E/DX2                !
 ! A90   A(42,45,49)           110.157          estimate D2E/DX2                !
 ! A91   A(42,45,50)           111.1885         estimate D2E/DX2                !
 ! A92   A(48,45,49)           107.95           estimate D2E/DX2                !
 ! A93   A(48,45,50)           108.4315         estimate D2E/DX2                !
 ! A94   A(49,45,50)           108.1907         estimate D2E/DX2                !
 ! A95   A(5,51,52)            120.9058         estimate D2E/DX2                !
 ! A96   A(5,51,56)            119.8754         estimate D2E/DX2                !
 ! A97   A(52,51,56)           119.1728         estimate D2E/DX2                !
 ! A98   A(51,52,53)           120.4164         estimate D2E/DX2                !
 ! A99   A(51,52,58)           120.5374         estimate D2E/DX2                !
 ! A100  A(53,52,58)           119.0404         estimate D2E/DX2                !
 ! A101  A(52,53,54)           120.1682         estimate D2E/DX2                !
 ! A102  A(52,53,59)           119.1491         estimate D2E/DX2                !
 ! A103  A(54,53,59)           120.6786         estimate D2E/DX2                !
 ! A104  A(53,54,55)           119.5696         estimate D2E/DX2                !
 ! A105  A(53,54,61)           122.2156         estimate D2E/DX2                !
 ! A106  A(55,54,61)           118.2124         estimate D2E/DX2                !
 ! A107  A(54,55,56)           120.1242         estimate D2E/DX2                !
 ! A108  A(54,55,60)           120.3131         estimate D2E/DX2                !
 ! A109  A(56,55,60)           119.5573         estimate D2E/DX2                !
 ! A110  A(51,56,55)           120.5443         estimate D2E/DX2                !
 ! A111  A(51,56,57)           120.4677         estimate D2E/DX2                !
 ! A112  A(55,56,57)           118.9798         estimate D2E/DX2                !
 ! A113  A(54,61,62)           112.8877         estimate D2E/DX2                !
 ! A114  A(54,61,63)           125.8019         estimate D2E/DX2                !
 ! A115  A(62,61,63)           121.3102         estimate D2E/DX2                !
 ! A116  A(61,62,64)           103.8232         estimate D2E/DX2                !
 ! D1    D(5,1,2,3)             -0.4645         estimate D2E/DX2                !
 ! D2    D(5,1,2,7)           -178.4292         estimate D2E/DX2                !
 ! D3    D(9,1,2,3)            177.8457         estimate D2E/DX2                !
 ! D4    D(9,1,2,7)             -0.119          estimate D2E/DX2                !
 ! D5    D(2,1,5,4)              1.3249         estimate D2E/DX2                !
 ! D6    D(2,1,5,51)          -179.2955         estimate D2E/DX2                !
 ! D7    D(9,1,5,4)           -175.9908         estimate D2E/DX2                !
 ! D8    D(9,1,5,51)             3.3887         estimate D2E/DX2                !
 ! D9    D(2,1,9,8)             -0.2007         estimate D2E/DX2                !
 ! D10   D(2,1,9,10)          -177.0434         estimate D2E/DX2                !
 ! D11   D(5,1,9,8)            177.1247         estimate D2E/DX2                !
 ! D12   D(5,1,9,10)             0.282          estimate D2E/DX2                !
 ! D13   D(1,2,3,4)             -0.5533         estimate D2E/DX2                !
 ! D14   D(1,2,3,6)           -177.7369         estimate D2E/DX2                !
 ! D15   D(7,2,3,4)            176.2195         estimate D2E/DX2                !
 ! D16   D(7,2,3,6)             -0.9641         estimate D2E/DX2                !
 ! D17   D(1,2,7,8)              0.401          estimate D2E/DX2                !
 ! D18   D(1,2,7,24)           179.4367         estimate D2E/DX2                !
 ! D19   D(3,2,7,8)           -176.3596         estimate D2E/DX2                !
 ! D20   D(3,2,7,24)             2.676          estimate D2E/DX2                !
 ! D21   D(2,3,4,5)              1.3713         estimate D2E/DX2                !
 ! D22   D(2,3,4,38)          -168.3244         estimate D2E/DX2                !
 ! D23   D(6,3,4,5)            178.449          estimate D2E/DX2                !
 ! D24   D(6,3,4,38)             8.7533         estimate D2E/DX2                !
 ! D25   D(3,4,5,1)             -1.7617         estimate D2E/DX2                !
 ! D26   D(3,4,5,51)           178.8529         estimate D2E/DX2                !
 ! D27   D(38,4,5,1)           167.3589         estimate D2E/DX2                !
 ! D28   D(38,4,5,51)          -12.0265         estimate D2E/DX2                !
 ! D29   D(3,4,38,39)          -94.0286         estimate D2E/DX2                !
 ! D30   D(3,4,38,40)          141.7289         estimate D2E/DX2                !
 ! D31   D(3,4,38,41)           26.5726         estimate D2E/DX2                !
 ! D32   D(5,4,38,39)           97.8664         estimate D2E/DX2                !
 ! D33   D(5,4,38,40)          -26.3761         estimate D2E/DX2                !
 ! D34   D(5,4,38,41)         -141.5324         estimate D2E/DX2                !
 ! D35   D(1,5,51,52)          -67.8003         estimate D2E/DX2                !
 ! D36   D(1,5,51,56)          109.7121         estimate D2E/DX2                !
 ! D37   D(4,5,51,52)          111.4841         estimate D2E/DX2                !
 ! D38   D(4,5,51,56)          -71.0034         estimate D2E/DX2                !
 ! D39   D(2,7,8,9)             -0.5546         estimate D2E/DX2                !
 ! D40   D(2,7,8,11)           169.8081         estimate D2E/DX2                !
 ! D41   D(24,7,8,9)          -179.5855         estimate D2E/DX2                !
 ! D42   D(24,7,8,11)           -9.2227         estimate D2E/DX2                !
 ! D43   D(2,7,24,25)         -110.2691         estimate D2E/DX2                !
 ! D44   D(2,7,24,26)           69.1845         estimate D2E/DX2                !
 ! D45   D(8,7,24,25)           68.6122         estimate D2E/DX2                !
 ! D46   D(8,7,24,26)         -111.9342         estimate D2E/DX2                !
 ! D47   D(7,8,9,1)              0.4479         estimate D2E/DX2                !
 ! D48   D(7,8,9,10)           177.1516         estimate D2E/DX2                !
 ! D49   D(11,8,9,1)          -170.5414         estimate D2E/DX2                !
 ! D50   D(11,8,9,10)            6.1623         estimate D2E/DX2                !
 ! D51   D(7,8,11,12)           68.6124         estimate D2E/DX2                !
 ! D52   D(7,8,11,13)          -55.3587         estimate D2E/DX2                !
 ! D53   D(7,8,11,14)         -169.6121         estimate D2E/DX2                !
 ! D54   D(9,8,11,12)         -121.9036         estimate D2E/DX2                !
 ! D55   D(9,8,11,13)          114.1253         estimate D2E/DX2                !
 ! D56   D(9,8,11,14)           -0.1282         estimate D2E/DX2                !
 ! D57   D(8,11,12,15)         176.9508         estimate D2E/DX2                !
 ! D58   D(8,11,12,16)          55.5297         estimate D2E/DX2                !
 ! D59   D(8,11,12,17)         -62.2086         estimate D2E/DX2                !
 ! D60   D(13,11,12,15)        -60.6025         estimate D2E/DX2                !
 ! D61   D(13,11,12,16)        177.9764         estimate D2E/DX2                !
 ! D62   D(13,11,12,17)         60.2381         estimate D2E/DX2                !
 ! D63   D(14,11,12,15)         55.3902         estimate D2E/DX2                !
 ! D64   D(14,11,12,16)        -66.0309         estimate D2E/DX2                !
 ! D65   D(14,11,12,17)        176.2308         estimate D2E/DX2                !
 ! D66   D(11,12,15,18)        172.8721         estimate D2E/DX2                !
 ! D67   D(11,12,15,19)         51.8458         estimate D2E/DX2                !
 ! D68   D(11,12,15,20)        -65.6457         estimate D2E/DX2                !
 ! D69   D(16,12,15,18)        -65.6779         estimate D2E/DX2                !
 ! D70   D(16,12,15,19)        173.2958         estimate D2E/DX2                !
 ! D71   D(16,12,15,20)         55.8043         estimate D2E/DX2                !
 ! D72   D(17,12,15,18)         51.1635         estimate D2E/DX2                !
 ! D73   D(17,12,15,19)        -69.8627         estimate D2E/DX2                !
 ! D74   D(17,12,15,20)        172.6457         estimate D2E/DX2                !
 ! D75   D(12,15,18,21)        -62.0153         estimate D2E/DX2                !
 ! D76   D(12,15,18,22)        178.6054         estimate D2E/DX2                !
 ! D77   D(12,15,18,23)         58.6741         estimate D2E/DX2                !
 ! D78   D(19,15,18,21)         59.6937         estimate D2E/DX2                !
 ! D79   D(19,15,18,22)        -59.6856         estimate D2E/DX2                !
 ! D80   D(19,15,18,23)       -179.6169         estimate D2E/DX2                !
 ! D81   D(20,15,18,21)        176.3062         estimate D2E/DX2                !
 ! D82   D(20,15,18,22)         56.9269         estimate D2E/DX2                !
 ! D83   D(20,15,18,23)        -63.0044         estimate D2E/DX2                !
 ! D84   D(7,24,25,29)        -179.6416         estimate D2E/DX2                !
 ! D85   D(7,24,25,30)           0.6969         estimate D2E/DX2                !
 ! D86   D(26,24,25,29)          0.9027         estimate D2E/DX2                !
 ! D87   D(26,24,25,30)       -178.7588         estimate D2E/DX2                !
 ! D88   D(7,24,26,27)         179.6688         estimate D2E/DX2                !
 ! D89   D(7,24,26,31)          -0.2221         estimate D2E/DX2                !
 ! D90   D(25,24,26,27)         -0.8659         estimate D2E/DX2                !
 ! D91   D(25,24,26,31)        179.2432         estimate D2E/DX2                !
 ! D92   D(24,25,29,28)         -0.3705         estimate D2E/DX2                !
 ! D93   D(24,25,29,33)        179.9151         estimate D2E/DX2                !
 ! D94   D(30,25,29,28)        179.2956         estimate D2E/DX2                !
 ! D95   D(30,25,29,33)         -0.4188         estimate D2E/DX2                !
 ! D96   D(24,26,27,28)          0.2941         estimate D2E/DX2                !
 ! D97   D(24,26,27,32)       -179.9613         estimate D2E/DX2                !
 ! D98   D(31,26,27,28)       -179.8132         estimate D2E/DX2                !
 ! D99   D(31,26,27,32)         -0.0686         estimate D2E/DX2                !
 ! D100  D(26,27,28,29)          0.2482         estimate D2E/DX2                !
 ! D101  D(26,27,28,34)       -179.8249         estimate D2E/DX2                !
 ! D102  D(32,27,28,29)       -179.4942         estimate D2E/DX2                !
 ! D103  D(32,27,28,34)          0.4328         estimate D2E/DX2                !
 ! D104  D(27,28,29,25)         -0.2105         estimate D2E/DX2                !
 ! D105  D(27,28,29,33)        179.4998         estimate D2E/DX2                !
 ! D106  D(34,28,29,25)        179.8656         estimate D2E/DX2                !
 ! D107  D(34,28,29,33)         -0.4241         estimate D2E/DX2                !
 ! D108  D(27,28,34,35)          0.8643         estimate D2E/DX2                !
 ! D109  D(27,28,34,36)       -179.4287         estimate D2E/DX2                !
 ! D110  D(29,28,34,35)       -179.2108         estimate D2E/DX2                !
 ! D111  D(29,28,34,36)          0.4962         estimate D2E/DX2                !
 ! D112  D(28,34,36,37)        179.6545         estimate D2E/DX2                !
 ! D113  D(35,34,36,37)         -0.6231         estimate D2E/DX2                !
 ! D114  D(4,38,39,42)         172.9966         estimate D2E/DX2                !
 ! D115  D(4,38,39,43)          51.6005         estimate D2E/DX2                !
 ! D116  D(4,38,39,44)         -65.8043         estimate D2E/DX2                !
 ! D117  D(40,38,39,42)        -63.5103         estimate D2E/DX2                !
 ! D118  D(40,38,39,43)        175.0936         estimate D2E/DX2                !
 ! D119  D(40,38,39,44)         57.6888         estimate D2E/DX2                !
 ! D120  D(41,38,39,42)         53.233          estimate D2E/DX2                !
 ! D121  D(41,38,39,43)        -68.1631         estimate D2E/DX2                !
 ! D122  D(41,38,39,44)        174.4321         estimate D2E/DX2                !
 ! D123  D(38,39,42,45)        172.5995         estimate D2E/DX2                !
 ! D124  D(38,39,42,46)         51.3506         estimate D2E/DX2                !
 ! D125  D(38,39,42,47)        -66.1276         estimate D2E/DX2                !
 ! D126  D(43,39,42,45)        -65.7035         estimate D2E/DX2                !
 ! D127  D(43,39,42,46)        173.0476         estimate D2E/DX2                !
 ! D128  D(43,39,42,47)         55.5694         estimate D2E/DX2                !
 ! D129  D(44,39,42,45)         51.2614         estimate D2E/DX2                !
 ! D130  D(44,39,42,46)        -69.9875         estimate D2E/DX2                !
 ! D131  D(44,39,42,47)        172.5343         estimate D2E/DX2                !
 ! D132  D(39,42,45,48)        -63.0025         estimate D2E/DX2                !
 ! D133  D(39,42,45,49)        177.6042         estimate D2E/DX2                !
 ! D134  D(39,42,45,50)         57.6732         estimate D2E/DX2                !
 ! D135  D(46,42,45,48)         58.9299         estimate D2E/DX2                !
 ! D136  D(46,42,45,49)        -60.4635         estimate D2E/DX2                !
 ! D137  D(46,42,45,50)        179.6056         estimate D2E/DX2                !
 ! D138  D(47,42,45,48)        175.5523         estimate D2E/DX2                !
 ! D139  D(47,42,45,49)         56.1589         estimate D2E/DX2                !
 ! D140  D(47,42,45,50)        -63.772          estimate D2E/DX2                !
 ! D141  D(5,51,52,53)         178.1206         estimate D2E/DX2                !
 ! D142  D(5,51,52,58)          -0.9907         estimate D2E/DX2                !
 ! D143  D(56,51,52,53)          0.5909         estimate D2E/DX2                !
 ! D144  D(56,51,52,58)       -178.5203         estimate D2E/DX2                !
 ! D145  D(5,51,56,55)        -178.3887         estimate D2E/DX2                !
 ! D146  D(5,51,56,57)           0.5541         estimate D2E/DX2                !
 ! D147  D(52,51,56,55)         -0.8331         estimate D2E/DX2                !
 ! D148  D(52,51,56,57)        178.1097         estimate D2E/DX2                !
 ! D149  D(51,52,53,54)         -0.1628         estimate D2E/DX2                !
 ! D150  D(51,52,53,59)       -179.4325         estimate D2E/DX2                !
 ! D151  D(58,52,53,54)        178.9616         estimate D2E/DX2                !
 ! D152  D(58,52,53,59)         -0.3081         estimate D2E/DX2                !
 ! D153  D(52,53,54,55)         -0.0324         estimate D2E/DX2                !
 ! D154  D(52,53,54,61)       -179.4577         estimate D2E/DX2                !
 ! D155  D(59,53,54,55)        179.226          estimate D2E/DX2                !
 ! D156  D(59,53,54,61)         -0.1993         estimate D2E/DX2                !
 ! D157  D(53,54,55,56)         -0.2077         estimate D2E/DX2                !
 ! D158  D(53,54,55,60)       -179.3595         estimate D2E/DX2                !
 ! D159  D(61,54,55,56)        179.2406         estimate D2E/DX2                !
 ! D160  D(61,54,55,60)          0.0888         estimate D2E/DX2                !
 ! D161  D(53,54,61,62)          1.3483         estimate D2E/DX2                !
 ! D162  D(53,54,61,63)       -178.7807         estimate D2E/DX2                !
 ! D163  D(55,54,61,62)       -178.0845         estimate D2E/DX2                !
 ! D164  D(55,54,61,63)          1.7865         estimate D2E/DX2                !
 ! D165  D(54,55,56,51)          0.6464         estimate D2E/DX2                !
 ! D166  D(54,55,56,57)       -178.3119         estimate D2E/DX2                !
 ! D167  D(60,55,56,51)        179.8047         estimate D2E/DX2                !
 ! D168  D(60,55,56,57)          0.8463         estimate D2E/DX2                !
 ! D169  D(54,61,62,64)        179.0203         estimate D2E/DX2                !
 ! D170  D(63,61,62,64)         -0.8573         estimate D2E/DX2                !
 --------------------------------------------------------------------------------
 Trust Radius=3.00D-01 FncErr=1.00D-07 GrdErr=1.00D-06
 Number of steps in this run=    363 maximum allowed number of steps=    384.
 GradGradGradGradGradGradGradGradGradGradGradGradGradGradGradGradGradGrad

 Stoichiometry    C28H28N2O6
 Framework group  C1[X(C28H28N2O6)]
 Deg. of freedom   186
 Full point group                 C1      NOp   1
 Largest Abelian subgroup         C1      NOp   1
 Largest concise Abelian subgroup C1      NOp   1
                         Standard orientation:                         
 ---------------------------------------------------------------------
 Center     Atomic      Atomic             Coordinates (Angstroms)
 Number     Number       Type             X           Y           Z
 ---------------------------------------------------------------------
      1          6           0       -0.637442   -0.489948   -0.151407
      2          6           0        0.502844    0.380242   -0.182172
      3          6           0        0.014850    1.766921   -0.281409
      4          7           0       -1.387383    1.600204   -0.314639
      5          6           0       -1.743973    0.253269   -0.212730
      6          8           0        0.681968    2.777038   -0.369630
      7          6           0        1.609715   -0.365383   -0.155435
      8          7           0        1.254786   -1.718403   -0.116594
      9          6           0       -0.150624   -1.878523   -0.104808
     10          8           0       -0.822526   -2.889187   -0.119801
     11          6           0        2.139826   -2.855541   -0.284568
     12          6           0        3.140827   -3.069044    0.850046
     13          1           0        2.660161   -2.736470   -1.241923
     14          1           0        1.524871   -3.758341   -0.385057
     15          6           0        3.964655   -4.334892    0.599259
     16          1           0        2.611327   -3.150787    1.806742
     17          1           0        3.815785   -2.212321    0.934484
     18          6           0        5.087503   -4.491222    1.610683
     19          1           0        4.398148   -4.305988   -0.407646
     20          1           0        3.311659   -5.214490    0.643827
     21          1           0        5.792528   -3.656410    1.542369
     22          1           0        5.641001   -5.416234    1.419653
     23          1           0        4.696585   -4.531368    2.631748
     24          6           0        2.972051    0.153117   -0.185371
     25          6           0        3.792875   -0.024335   -1.305217
     26          6           0        3.469962    0.853646    0.922711
     27          6           0        4.774791    1.353513    0.918936
     28          6           0        5.596047    1.163584   -0.197316
     29          6           0        5.100290    0.474647   -1.311103
     30          1           0        3.421781   -0.546711   -2.184135
     31          1           0        2.847347    1.015666    1.800795
     32          1           0        5.144320    1.894310    1.788410
     33          1           0        5.721612    0.324605   -2.190821
     34          6           0        6.974465    1.708446   -0.153948
     35          8           0        7.477356    2.303929    0.780700
     36          8           0        7.663650    1.475919   -1.284875
     37          1           0        8.535664    1.890065   -1.114062
     38          6           0       -2.273216    2.695137   -0.659146
     39          6           0       -2.800313    3.461438    0.551537
     40          1           0       -3.101749    2.313750   -1.267045
     41          1           0       -1.709477    3.385407   -1.299526
     42          6           0       -3.581708    4.698144    0.102484
     43          1           0       -1.969198    3.764199    1.199778
     44          1           0       -3.447530    2.813406    1.150576
     45          6           0       -4.273078    5.386265    1.267230
     46          1           0       -4.335862    4.417045   -0.642147
     47          1           0       -2.899245    5.406757   -0.381839
     48          1           0       -5.019151    4.726485    1.721677
     49          1           0       -4.786995    6.288759    0.921052
     50          1           0       -3.553378    5.677488    2.038219
     51          6           0       -3.111650   -0.250750   -0.192261
     52          6           0       -3.618198   -0.999144   -1.261323
     53          6           0       -4.919604   -1.511208   -1.213875
     54          6           0       -5.725654   -1.281223   -0.092675
     55          6           0       -5.221213   -0.537101    0.979389
     56          6           0       -3.919462   -0.031360    0.931087
     57          1           0       -3.536431    0.521170    1.786716
     58          1           0       -3.001713   -1.203388   -2.134403
     59          1           0       -5.288941   -2.097643   -2.051855
     60          1           0       -5.833800   -0.359769    1.861575
     61          6           0       -7.106247   -1.812058    0.010614
     62          8           0       -7.466607   -2.543313   -1.058390
     63          8           0       -7.869245   -1.635162    0.942262
     64          1           0       -8.377822   -2.835400   -0.845939
 ---------------------------------------------------------------------
 Rotational constants (GHZ):      0.1641063      0.0504332      0.0406642
 Standard basis: 6-31G(d,p) (6D, 7F)
 There are   680 symmetry adapted cartesian basis functions of A   symmetry.
 There are   680 symmetry adapted basis functions of A   symmetry.
   680 basis functions,  1204 primitive gaussians,   680 cartesian basis functions
   129 alpha electrons      129 beta electrons
       nuclear repulsion energy      3666.0545512598 Hartrees.
 NAtoms=   64 NActive=   64 NUniq=   64 SFac= 1.00D+00 NAtFMM=   60 NAOKFM=T Big=T
 Integral buffers will be    131072 words long.
 Raffenetti 2 integral format.
 Two-electron integral symmetry is turned on.
 One-electron integrals computed using PRISM.
 NBasis=   680 RedAO= T EigKep=  4.13D-04  NBF=   680
 NBsUse=   680 1.00D-06 EigRej= -1.00D+00 NBFU=   680
 ExpMin= 1.61D-01 ExpMax= 5.48D+03 ExpMxC= 8.25D+02 IAcc=1 IRadAn=         1 AccDes= 0.00D+00
 Harris functional with IExCor=20419 and IRadAn=       1 diagonalized for initial guess.
 HarFok:  IExCor=20419 AccDes= 0.00D+00 IRadAn=         1 IDoV= 1 UseB2=F ITyADJ=14
 ICtDFT=  3500011 ScaDFX=  1.000000  1.000000  1.000000  1.000000
 FoFCou: FMM=F IPFlag=           0 FMFlag=      100000 FMFlg1=        2001
         NFxFlg=           0 DoJE=T BraDBF=F KetDBF=T FulRan=T
         wScrn=  0.000000 ICntrl=     500 IOpCl=  0 I1Cent=   200000004 NGrid=           0
         NMat0=    1 NMatS0=      1 NMatT0=    0 NMatD0=    1 NMtDS0=    0 NMtDT0=    0
 Petite list used in FoFCou.
 Requested convergence on RMS density matrix=1.00D-08 within 128 cycles.
 Requested convergence on MAX density matrix=1.00D-06.
 Requested convergence on             energy=1.00D-06.
 No special actions if energy rises.
 Integral accuracy reduced to 1.0D-05 until final iterations.
 Initial convergence to 1.0D-05 achieved.  Increase integral accuracy.
 SCF Done:  E(RCAM-B3LYP) =  -1643.97203249     A.U. after   15 cycles
            NFock= 15  Conv=0.88D-08     -V/T= 2.0089

 **********************************************************************

            Population analysis using the SCF density.

 **********************************************************************

 Orbital symmetries:
       Occupied  (A) (A) (A) (A) (A) (A) (A) (A) (A) (A) (A) (A)
                 (A) (A) (A) (A) (A) (A) (A) (A) (A) (A) (A) (A)
                 (A) (A) (A) (A) (A) (A) (A) (A) (A) (A) (A) (A)
                 (A) (A) (A) (A) (A) (A) (A) (A) (A) (A) (A) (A)
                 (A) (A) (A) (A) (A) (A) (A) (A) (A) (A) (A) (A)
                 (A) (A) (A) (A) (A) (A) (A) (A) (A) (A) (A) (A)
                 (A) (A) (A) (A) (A) (A) (A) (A) (A) (A) (A) (A)
                 (A) (A) (A) (A) (A) (A) (A) (A) (A) (A) (A) (A)
                 (A) (A) (A) (A) (A) (A) (A) (A) (A) (A) (A) (A)
                 (A) (A) (A) (A) (A) (A) (A) (A) (A) (A) (A) (A)
                 (A) (A) (A) (A) (A) (A) (A) (A) (A)
       Virtual   (A) (A) (A) (A) (A) (A) (A) (A) (A) (A) (A) (A)
                 (A) (A) (A) (A) (A) (A) (A) (A) (A) (A) (A) (A)
                 (A) (A) (A) (A) (A) (A) (A) (A) (A) (A) (A) (A)
                 (A) (A) (A) (A) (A) (A) (A) (A) (A) (A) (A) (A)
                 (A) (A) (A) (A) (A) (A) (A) (A) (A) (A) (A) (A)
                 (A) (A) (A) (A) (A) (A) (A) (A) (A) (A) (A) (A)
                 (A) (A) (A) (A) (A) (A) (A) (A) (A) (A) (A) (A)
                 (A) (A) (A) (A) (A) (A) (A) (A) (A) (A) (A) (A)
                 (A) (A) (A) (A) (A) (A) (A) (A) (A) (A) (A) (A)
                 (A) (A) (A) (A) (A) (A) (A) (A) (A) (A) (A) (A)
                 (A) (A) (A) (A) (A) (A) (A) (A) (A) (A) (A) (A)
                 (A) (A) (A) (A) (A) (A) (A) (A) (A) (A) (A) (A)
                 (A) (A) (A) (A) (A) (A) (A) (A) (A) (A) (A) (A)
                 (A) (A) (A) (A) (A) (A) (A) (A) (A) (A) (A) (A)
                 (A) (A) (A) (A) (A) (A) (A) (A) (A) (A) (A) (A)
                 (A) (A) (A) (A) (A) (A) (A) (A) (A) (A) (A) (A)
                 (A) (A) (A) (A) (A) (A) (A) (A) (A) (A) (A) (A)
                 (A) (A) (A) (A) (A) (A) (A) (A) (A) (A) (A) (A)
                 (A) (A) (A) (A) (A) (A) (A) (A) (A) (A) (A) (A)
                 (A) (A) (A) (A) (A) (A) (A) (A) (A) (A) (A) (A)
                 (A) (A) (A) (A) (A) (A) (A) (A) (A) (A) (A) (A)
                 (A) (A) (A) (A) (A) (A) (A) (A) (A) (A) (A) (A)
                 (A) (A) (A) (A) (A) (A) (A) (A) (A) (A) (A) (A)
                 (A) (A) (A) (A) (A) (A) (A) (A) (A) (A) (A) (A)
                 (A) (A) (A) (A) (A) (A) (A) (A) (A) (A) (A) (A)
                 (A) (A) (A) (A) (A) (A) (A) (A) (A) (A) (A) (A)
                 (A) (A) (A) (A) (A) (A) (A) (A) (A) (A) (A) (A)
                 (A) (A) (A) (A) (A) (A) (A) (A) (A) (A) (A) (A)
                 (A) (A) (A) (A) (A) (A) (A) (A) (A) (A) (A) (A)
                 (A) (A) (A) (A) (A) (A) (A) (A) (A) (A) (A) (A)
                 (A) (A) (A) (A) (A) (A) (A) (A) (A) (A) (A) (A)
                 (A) (A) (A) (A) (A) (A) (A) (A) (A) (A) (A) (A)
                 (A) (A) (A) (A) (A) (A) (A) (A) (A) (A) (A) (A)
                 (A) (A) (A) (A) (A) (A) (A) (A) (A) (A) (A) (A)
                 (A) (A) (A) (A) (A) (A) (A) (A) (A) (A) (A) (A)
                 (A) (A) (A) (A) (A) (A) (A) (A) (A) (A) (A) (A)
                 (A) (A) (A) (A) (A) (A) (A) (A) (A) (A) (A) (A)
                 (A) (A) (A) (A) (A) (A) (A) (A) (A) (A) (A) (A)
                 (A) (A) (A) (A) (A) (A) (A) (A) (A) (A) (A) (A)
                 (A) (A) (A) (A) (A) (A) (A) (A) (A) (A) (A) (A)
                 (A) (A) (A) (A) (A) (A) (A) (A) (A) (A) (A) (A)
                 (A) (A) (A) (A) (A) (A) (A) (A) (A) (A) (A) (A)
                 (A) (A) (A) (A) (A) (A) (A) (A) (A) (A) (A) (A)
                 (A) (A) (A) (A) (A) (A) (A) (A) (A) (A) (A) (A)
                 (A) (A) (A) (A) (A) (A) (A) (A) (A) (A) (A) (A)
                 (A) (A) (A) (A) (A) (A) (A) (A) (A) (A) (A)
 The electronic state is 1-A.
 Alpha  occ. eigenvalues --  -19.27628 -19.27588 -19.21530 -19.21508 -19.19993
 Alpha  occ. eigenvalues --  -19.19911 -14.45748 -14.45723 -10.40398 -10.40376
 Alpha  occ. eigenvalues --  -10.37283 -10.37233 -10.33058 -10.33016 -10.30181
 Alpha  occ. eigenvalues --  -10.30153 -10.30016 -10.29962 -10.29205 -10.29178
 Alpha  occ. eigenvalues --  -10.28837 -10.28726 -10.28673 -10.28568 -10.28546
 Alpha  occ. eigenvalues --  -10.28493 -10.28473 -10.28417 -10.26023 -10.25923
 Alpha  occ. eigenvalues --  -10.25890 -10.25762 -10.25401 -10.25301 -10.24883
 Alpha  occ. eigenvalues --  -10.24784  -1.19652  -1.19610  -1.13047  -1.12430
 Alpha  occ. eigenvalues --   -1.09536  -1.09514  -1.06379  -1.05400  -0.96348
 Alpha  occ. eigenvalues --   -0.96318  -0.92766  -0.89724  -0.88375  -0.88054
 Alpha  occ. eigenvalues --   -0.87139  -0.84506  -0.84456  -0.83581  -0.81060
 Alpha  occ. eigenvalues --   -0.79653  -0.78493  -0.74942  -0.73887  -0.72235
 Alpha  occ. eigenvalues --   -0.71284  -0.70356  -0.70265  -0.67413  -0.66830
 Alpha  occ. eigenvalues --   -0.66585  -0.66468  -0.66027  -0.64877  -0.62146
 Alpha  occ. eigenvalues --   -0.61450  -0.59192  -0.57989  -0.57608  -0.56516
 Alpha  occ. eigenvalues --   -0.56092  -0.55748  -0.55194  -0.54791  -0.54016
 Alpha  occ. eigenvalues --   -0.53774  -0.53093  -0.52840  -0.52803  -0.52548
 Alpha  occ. eigenvalues --   -0.52378  -0.51914  -0.51582  -0.50957  -0.50352
 Alpha  occ. eigenvalues --   -0.50292  -0.49517  -0.49422  -0.48700  -0.48406
 Alpha  occ. eigenvalues --   -0.47952  -0.47666  -0.47474  -0.46820  -0.45562
 Alpha  occ. eigenvalues --   -0.45409  -0.44769  -0.44636  -0.44302  -0.42994
 Alpha  occ. eigenvalues --   -0.42764  -0.42672  -0.42463  -0.42236  -0.41380
 Alpha  occ. eigenvalues --   -0.40971  -0.40348  -0.40232  -0.39629  -0.39426
 Alpha  occ. eigenvalues --   -0.39073  -0.38761  -0.38735  -0.37833  -0.34806
 Alpha  occ. eigenvalues --   -0.34784  -0.33621  -0.32663  -0.32356  -0.32323
 Alpha  occ. eigenvalues --   -0.32233  -0.31140  -0.30290  -0.25205
 Alpha virt. eigenvalues --   -0.03985  -0.01182  -0.00484   0.02675   0.02743
 Alpha virt. eigenvalues --    0.06125   0.10118   0.10510   0.12178   0.12235
 Alpha virt. eigenvalues --    0.13138   0.13677   0.14207   0.14572   0.15609
 Alpha virt. eigenvalues --    0.16641   0.16859   0.17116   0.17339   0.17639
 Alpha virt. eigenvalues --    0.18598   0.18838   0.19114   0.19738   0.20065
 Alpha virt. eigenvalues --    0.20315   0.20825   0.21329   0.21620   0.21827
 Alpha virt. eigenvalues --    0.22174   0.22430   0.22911   0.23070   0.23797
 Alpha virt. eigenvalues --    0.23896   0.24144   0.24350   0.24569   0.25008
 Alpha virt. eigenvalues --    0.25967   0.26137   0.26944   0.27563   0.27804
 Alpha virt. eigenvalues --    0.28567   0.29317   0.29561   0.30149   0.30753
 Alpha virt. eigenvalues --    0.31509   0.31612   0.31897   0.32162   0.32735
 Alpha virt. eigenvalues --    0.33296   0.33538   0.33875   0.34151   0.36071
 Alpha virt. eigenvalues --    0.36731   0.37258   0.37543   0.39996   0.40605
 Alpha virt. eigenvalues --    0.41214   0.41663   0.42373   0.43562   0.43838
 Alpha virt. eigenvalues --    0.46525   0.47968   0.49968   0.51719   0.52243
 Alpha virt. eigenvalues --    0.52516   0.52930   0.53470   0.54228   0.55245
 Alpha virt. eigenvalues --    0.55411   0.55800   0.55856   0.56273   0.57247
 Alpha virt. eigenvalues --    0.57436   0.58066   0.58402   0.59023   0.59348
 Alpha virt. eigenvalues --    0.60174   0.60237   0.60406   0.60613   0.60864
 Alpha virt. eigenvalues --    0.61104   0.61546   0.61921   0.62388   0.62911
 Alpha virt. eigenvalues --    0.63128   0.63684   0.63912   0.64007   0.64200
 Alpha virt. eigenvalues --    0.65004   0.65401   0.65644   0.65664   0.66607
 Alpha virt. eigenvalues --    0.66681   0.67380   0.67891   0.68478   0.68628
 Alpha virt. eigenvalues --    0.69429   0.69860   0.70571   0.71321   0.73005
 Alpha virt. eigenvalues --    0.73644   0.74144   0.74353   0.74528   0.74729
 Alpha virt. eigenvalues --    0.75873   0.76345   0.76708   0.77619   0.77893
 Alpha virt. eigenvalues --    0.78537   0.79203   0.79363   0.79593   0.80020
 Alpha virt. eigenvalues --    0.80313   0.80546   0.81993   0.82141   0.83093
 Alpha virt. eigenvalues --    0.83177   0.83355   0.83619   0.84220   0.84788
 Alpha virt. eigenvalues --    0.85017   0.86115   0.86376   0.86508   0.86801
 Alpha virt. eigenvalues --    0.87100   0.87358   0.87793   0.88063   0.88687
 Alpha virt. eigenvalues --    0.89375   0.89911   0.90347   0.90440   0.92150
 Alpha virt. eigenvalues --    0.92630   0.93271   0.93774   0.94514   0.94813
 Alpha virt. eigenvalues --    0.94888   0.95132   0.95806   0.95950   0.96392
 Alpha virt. eigenvalues --    0.96779   0.97433   0.97923   0.98302   0.99002
 Alpha virt. eigenvalues --    0.99031   0.99379   0.99559   1.00206   1.00890
 Alpha virt. eigenvalues --    1.01299   1.01739   1.02247   1.02306   1.02831
 Alpha virt. eigenvalues --    1.04061   1.04466   1.05787   1.06186   1.06662
 Alpha virt. eigenvalues --    1.06748   1.07119   1.07723   1.07963   1.08881
 Alpha virt. eigenvalues --    1.10098   1.10264   1.11139   1.12715   1.12996
 Alpha virt. eigenvalues --    1.13564   1.13854   1.14581   1.14853   1.16923
 Alpha virt. eigenvalues --    1.17517   1.17769   1.19585   1.20242   1.20785
 Alpha virt. eigenvalues --    1.21703   1.22302   1.23302   1.24192   1.25645
 Alpha virt. eigenvalues --    1.27489   1.28275   1.28384   1.29632   1.31095
 Alpha virt. eigenvalues --    1.32017   1.32964   1.33543   1.33888   1.34752
 Alpha virt. eigenvalues --    1.35267   1.35556   1.35687   1.36167   1.36689
 Alpha virt. eigenvalues --    1.37559   1.38858   1.40688   1.41399   1.41824
 Alpha virt. eigenvalues --    1.42573   1.43533   1.43875   1.44282   1.44491
 Alpha virt. eigenvalues --    1.45385   1.45588   1.45835   1.46135   1.47142
 Alpha virt. eigenvalues --    1.47468   1.48571   1.48934   1.49527   1.49957
 Alpha virt. eigenvalues --    1.50762   1.51096   1.52195   1.54411   1.55316
 Alpha virt. eigenvalues --    1.56942   1.57699   1.59688   1.60446   1.61778
 Alpha virt. eigenvalues --    1.63088   1.63242   1.63292   1.63992   1.64952
 Alpha virt. eigenvalues --    1.66168   1.66684   1.67259   1.68719   1.70788
 Alpha virt. eigenvalues --    1.73253   1.74521   1.74700   1.75154   1.75413
 Alpha virt. eigenvalues --    1.76228   1.76374   1.77674   1.78875   1.80272
 Alpha virt. eigenvalues --    1.80986   1.81394   1.81665   1.81727   1.82856
 Alpha virt. eigenvalues --    1.83913   1.84237   1.84621   1.84908   1.85524
 Alpha virt. eigenvalues --    1.86028   1.86897   1.87363   1.87637   1.87989
 Alpha virt. eigenvalues --    1.90387   1.90589   1.91239   1.91953   1.92308
 Alpha virt. eigenvalues --    1.92463   1.92784   1.93243   1.93942   1.94057
 Alpha virt. eigenvalues --    1.94130   1.94389   1.95168   1.96244   1.96373
 Alpha virt. eigenvalues --    1.96631   1.97461   1.98764   1.99315   1.99917
 Alpha virt. eigenvalues --    2.00200   2.00725   2.01760   2.02065   2.02446
 Alpha virt. eigenvalues --    2.02746   2.03383   2.03689   2.04741   2.05344
 Alpha virt. eigenvalues --    2.05858   2.07050   2.07732   2.08224   2.08927
 Alpha virt. eigenvalues --    2.09994   2.11389   2.11482   2.12162   2.12225
 Alpha virt. eigenvalues --    2.12455   2.13643   2.13747   2.13936   2.14256
 Alpha virt. eigenvalues --    2.14972   2.15658   2.15997   2.16150   2.16251
 Alpha virt. eigenvalues --    2.16379   2.17851   2.18155   2.18526   2.19796
 Alpha virt. eigenvalues --    2.20483   2.21032   2.21571   2.23849   2.24051
 Alpha virt. eigenvalues --    2.27095   2.28041   2.30277   2.30581   2.31218
 Alpha virt. eigenvalues --    2.31487   2.31929   2.32466   2.32773   2.33328
 Alpha virt. eigenvalues --    2.33506   2.34341   2.34540   2.35300   2.35878
 Alpha virt. eigenvalues --    2.36720   2.36926   2.37008   2.38232   2.38973
 Alpha virt. eigenvalues --    2.39139   2.39322   2.40013   2.40669   2.42719
 Alpha virt. eigenvalues --    2.42969   2.43596   2.44035   2.44970   2.45459
 Alpha virt. eigenvalues --    2.46012   2.46597   2.47010   2.47179   2.47434
 Alpha virt. eigenvalues --    2.47965   2.48732   2.49787   2.51134   2.51494
 Alpha virt. eigenvalues --    2.52238   2.53022   2.53843   2.54079   2.54953
 Alpha virt. eigenvalues --    2.55750   2.56398   2.57340   2.57656   2.57850
 Alpha virt. eigenvalues --    2.58123   2.58579   2.59767   2.59962   2.60721
 Alpha virt. eigenvalues --    2.61591   2.62420   2.63705   2.64820   2.64875
 Alpha virt. eigenvalues --    2.65338   2.65553   2.66590   2.66922   2.67826
 Alpha virt. eigenvalues --    2.69360   2.70229   2.70378   2.70911   2.72117
 Alpha virt. eigenvalues --    2.72885   2.73473   2.74022   2.74760   2.75383
 Alpha virt. eigenvalues --    2.75637   2.76780   2.77560   2.78353   2.78597
 Alpha virt. eigenvalues --    2.79706   2.80549   2.80990   2.81061   2.81322
 Alpha virt. eigenvalues --    2.81999   2.82318   2.83049   2.83356   2.83454
 Alpha virt. eigenvalues --    2.83931   2.85026   2.85724   2.87174   2.88732
 Alpha virt. eigenvalues --    2.88990   2.90361   2.90509   2.91199   2.91376
 Alpha virt. eigenvalues --    2.92521   2.93023   2.95845   2.97605   2.98024
 Alpha virt. eigenvalues --    2.98297   2.98605   2.99475   3.00976   3.01028
 Alpha virt. eigenvalues --    3.01278   3.01897   3.02035   3.03394   3.06136
 Alpha virt. eigenvalues --    3.07752   3.11406   3.12284   3.12544   3.14343
 Alpha virt. eigenvalues --    3.15533   3.19906   3.21352   3.21962   3.25710
 Alpha virt. eigenvalues --    3.26008   3.26939   3.27338   3.28953   3.30213
 Alpha virt. eigenvalues --    3.30973   3.31074   3.32840   3.35112   3.35968
 Alpha virt. eigenvalues --    3.37773   3.38721   3.40078   3.40281   3.40869
 Alpha virt. eigenvalues --    3.41545   3.43387   3.43846   3.46521   3.47940
 Alpha virt. eigenvalues --    3.50393   3.50627   3.51765   3.52609   3.53016
 Alpha virt. eigenvalues --    3.55567   3.55715   3.56826   3.57380   3.62372
 Alpha virt. eigenvalues --    3.62658   3.65541   3.65649   3.88940   3.89129
 Alpha virt. eigenvalues --    4.00672   4.00726   4.14690   4.17545   4.17568
 Alpha virt. eigenvalues --    4.18270   4.20987   4.21268   4.22112   4.24998
 Alpha virt. eigenvalues --    4.26866   4.29344   4.30976   4.34370   4.35816
 Alpha virt. eigenvalues --    4.37032   4.38472   4.47146   4.47901   4.49436
 Alpha virt. eigenvalues --    4.51376   4.52131   4.52972   4.56571   4.59464
 Alpha virt. eigenvalues --    4.62248   4.64046   4.65150   4.67035   4.75811
 Alpha virt. eigenvalues --    4.81368   4.82475   4.88475   4.89981   4.95314
 Alpha virt. eigenvalues --    5.03582
          Condensed to atoms (all electrons):
 Mulliken charges:
               1
     1  C   -0.038202
     2  C   -0.034602
     3  C    0.583577
     4  N   -0.579671
     5  C    0.183605
     6  O   -0.495202
     7  C    0.185328
     8  N   -0.589787
     9  C    0.582500
    10  O   -0.494331
    11  C   -0.056726
    12  C   -0.180087
    13  H    0.106953
    14  H    0.146008
    15  C   -0.182728
    16  H    0.108702
    17  H    0.106860
    18  C   -0.318540
    19  H    0.095239
    20  H    0.102719
    21  H    0.107012
    22  H    0.103398
    23  H    0.106531
    24  C    0.075323
    25  C   -0.102308
    26  C   -0.087227
    27  C   -0.102131
    28  C    0.035612
    29  C   -0.108262
    30  H    0.107420
    31  H    0.114788
    32  H    0.134225
    33  H    0.127246
    34  C    0.547341
    35  O   -0.473035
    36  O   -0.497839
    37  H    0.333455
    38  C   -0.060875
    39  C   -0.170830
    40  H    0.116526
    41  H    0.135908
    42  C   -0.184251
    43  H    0.116731
    44  H    0.093451
    45  C   -0.318215
    46  H    0.095218
    47  H    0.105457
    48  H    0.104658
    49  H    0.103689
    50  H    0.106942
    51  C    0.065522
    52  C   -0.084556
    53  C   -0.106507
    54  C    0.036556
    55  C   -0.104928
    56  C   -0.101382
    57  H    0.112243
    58  H    0.114007
    59  H    0.129197
    60  H    0.132052
    61  C    0.547359
    62  O   -0.496726
    63  O   -0.473951
    64  H    0.333538
 Sum of Mulliken charges =   0.00000
 Mulliken charges with hydrogens summed into heavy atoms:
               1
     1  C   -0.038202
     2  C   -0.034602
     3  C    0.583577
     4  N   -0.579671
     5  C    0.183605
     6  O   -0.495202
     7  C    0.185328
     8  N   -0.589787
     9  C    0.582500
    10  O   -0.494331
    11  C    0.196235
    12  C    0.035475
    15  C    0.015230
    18  C   -0.001599
    24  C    0.075323
    25  C    0.005112
    26  C    0.027561
    27  C    0.032094
    28  C    0.035612
    29  C    0.018985
    34  C    0.547341
    35  O   -0.473035
    36  O   -0.164384
    38  C    0.191559
    39  C    0.039352
    42  C    0.016425
    45  C   -0.002926
    51  C    0.065522
    52  C    0.029451
    53  C    0.022690
    54  C    0.036556
    55  C    0.027123
    56  C    0.010860
    61  C    0.547359
    62  O   -0.163188
    63  O   -0.473951
 Electronic spatial extent (au):  <R**2>=          24997.8835
 Charge=              0.0000 electrons
 Dipole moment (field-independent basis, Debye):
    X=              0.4168    Y=             -0.9771    Z=             -2.5381  Tot=              2.7514
 Quadrupole moment (field-independent basis, Debye-Ang):
   XX=           -199.4560   YY=           -214.2437   ZZ=           -201.4347
   XY=            -15.5495   XZ=              0.4784   YZ=              2.8474
 Traceless Quadrupole moment (field-independent basis, Debye-Ang):
   XX=              5.5888   YY=             -9.1989   ZZ=              3.6101
   XY=            -15.5495   XZ=              0.4784   YZ=              2.8474
 Octapole moment (field-independent basis, Debye-Ang**2):
  XXX=             87.5421  YYY=            -18.0908  ZZZ=             -8.8193  XYY=            -43.6119
  XXY=            -71.9903  XXZ=           -206.1335  XZZ=              4.6838  YZZ=             -2.0034
  YYZ=            -13.3365  XYZ=            -48.6597
 Hexadecapole moment (field-independent basis, Debye-Ang**3):
 XXXX=         -22570.5704 YYYY=          -7535.5635 ZZZZ=          -1098.5558 XXXY=            776.0065
 XXXZ=            -13.5636 YYYX=             86.2921 YYYZ=            -23.9549 ZZZX=            -16.6556
 ZZZY=             24.9900 XXYY=          -4948.5251 XXZZ=          -4234.7677 YYZZ=          -1447.8516
 XXYZ=            -17.6115 YYXZ=             -1.3570 ZZXY=             53.3935
 N-N= 3.666054551260D+03 E-N=-1.115913809328D+04  KE= 1.629419703113D+03
 Calling FoFJK, ICntrl=      2127 FMM=T ISym2X=0 I1Cent= 0 IOpClX= 0 NMat=1 NMatS=1 NMatT=0.
 ***** Axes restored to original set *****
 -------------------------------------------------------------------
 Center     Atomic                   Forces (Hartrees/Bohr)
 Number     Number              X              Y              Z
 -------------------------------------------------------------------
      1        6          -0.017246595   -0.022497726    0.002746669
      2        6           0.016168867    0.022790572    0.003334827
      3        6          -0.029236948   -0.012788285    0.000279714
      4        7           0.012407421   -0.001300944   -0.000896015
      5        6           0.003203694    0.003141283   -0.006091506
      6        8           0.016056187    0.011817560   -0.001222300
      7        6          -0.004999513   -0.003554984   -0.002371164
      8        7          -0.013657865    0.007719231    0.001890116
      9        6           0.029393916    0.012261754   -0.004781990
     10        8          -0.016550051   -0.011359529    0.001936689
     11        6          -0.003708696   -0.004328899   -0.000010397
     12        6          -0.003259395    0.000575081   -0.004431716
     13        1          -0.002757741   -0.002537696    0.001354801
     14        1           0.007338508    0.001709416    0.000776258
     15        6           0.003216007   -0.000616820    0.003521802
     16        1           0.000291389    0.000751670   -0.001246460
     17        1           0.000980431    0.000072192   -0.000426620
     18        6          -0.004300103   -0.001269539   -0.000654194
     19        1           0.000668563    0.001487119   -0.000766736
     20        1           0.000518220    0.000356373   -0.001747386
     21        1          -0.000337320    0.000336806    0.001360991
     22        1           0.000762520   -0.001163209    0.002155562
     23        1          -0.000164833   -0.000996564    0.000232594
     24        6          -0.007103454   -0.017292294    0.002113685
     25        6          -0.001148941   -0.010558326    0.002469233
     26        6           0.000495869   -0.008854145   -0.001161215
     27        6           0.000225092    0.009415833   -0.001406261
     28        6           0.000922972    0.006192996    0.002557037
     29        6           0.000972169    0.007776012    0.000449321
     30        1           0.001104054   -0.000087558    0.002199360
     31        1          -0.001791548    0.000705142   -0.003713536
     32        1          -0.002090393   -0.001020515   -0.004158043
     33        1           0.001738174   -0.000380701    0.003285686
     34        6           0.002558198   -0.006381598    0.006988683
     35        8          -0.003055353    0.010287300   -0.007315933
     36        8           0.001296984   -0.011526728    0.001914668
     37        1          -0.002230639    0.007985753   -0.004399442
     38        6           0.005360143   -0.001977935    0.001997718
     39        6           0.003913040    0.001227931   -0.005632141
     40        1          -0.001374394   -0.000428615    0.002590891
     41        1          -0.002688409   -0.000458398    0.002154950
     42        6          -0.001688070   -0.000776432    0.004758205
     43        1          -0.001172529   -0.000194316   -0.002126623
     44        1          -0.000509873    0.000913916   -0.000140776
     45        6           0.004372201    0.001412053   -0.001448614
     46        1          -0.001009698   -0.000693875   -0.001061099
     47        1          -0.001335834    0.000579734   -0.001308847
     48        1           0.000659921   -0.000825997    0.000993620
     49        1           0.000056042    0.000269192    0.002621025
     50        1           0.000345334    0.000689109    0.000380949
     51        6           0.007354643    0.016450036    0.001211852
     52        6          -0.000495175    0.008664944    0.001481207
     53        6          -0.000016897   -0.007910547    0.001461346
     54        6           0.001646418   -0.006513771    0.001641692
     55        6          -0.000904428   -0.009087477   -0.000398286
     56        6           0.001599693    0.011035183   -0.000960441
     57        1          -0.001265712   -0.000063528   -0.002966642
     58        1           0.001860758   -0.000486422    0.003123174
     59        1           0.001951871    0.000144856    0.003294875
     60        1          -0.002159886    0.001279173   -0.003988218
     61        6           0.003676217    0.006301480    0.006894783
     62        8           0.000681335    0.011078715    0.002827651
     63        8          -0.003792821   -0.009750007   -0.007424881
     64        1          -0.001743735   -0.007745036   -0.004744147
 -------------------------------------------------------------------
 Cartesian Forces:  Max     0.029393916 RMS     0.006422425

 GradGradGradGradGradGradGradGradGradGradGradGradGradGradGradGradGradGrad
 Berny optimization.
 FormGI is forming the generalized inverse of G from B-inverse, IUseBI=4.
 Internal  Forces:  Max     0.026472468 RMS     0.004244790
 Search for a local minimum.
 Step number   1 out of a maximum of  363
 All quantities printed in internal units (Hartrees-Bohrs-Radians)
 Mixed Optimization -- RFO/linear search
 Second derivative matrix not updated -- first step.
 ITU=  0
     Eigenvalues ---    0.00356   0.00366   0.00395   0.00413   0.00511
     Eigenvalues ---    0.00511   0.00993   0.00994   0.01021   0.01031
     Eigenvalues ---    0.01295   0.01322   0.01323   0.01325   0.01386
     Eigenvalues ---    0.01437   0.01440   0.01448   0.01488   0.01697
     Eigenvalues ---    0.01747   0.01749   0.01754   0.01850   0.01859
     Eigenvalues ---    0.01908   0.01942   0.02077   0.02086   0.02089
     Eigenvalues ---    0.02091   0.02093   0.02093   0.02094   0.02095
     Eigenvalues ---    0.02095   0.02100   0.02107   0.02107   0.02113
     Eigenvalues ---    0.02115   0.02116   0.02424   0.02427   0.02510
     Eigenvalues ---    0.03668   0.03673   0.03753   0.03760   0.03956
     Eigenvalues ---    0.04100   0.04893   0.04899   0.04908   0.04912
     Eigenvalues ---    0.05401   0.05457   0.05609   0.05609   0.05732
     Eigenvalues ---    0.05732   0.07954   0.07990   0.08240   0.08240
     Eigenvalues ---    0.09723   0.09933   0.11914   0.11941   0.12123
     Eigenvalues ---    0.12123   0.13024   0.13158   0.15997   0.15998
     Eigenvalues ---    0.15999   0.15999   0.16000   0.16000   0.16000
     Eigenvalues ---    0.16000   0.16000   0.16000   0.16000   0.16000
     Eigenvalues ---    0.16000   0.16000   0.16000   0.16000   0.21857
     Eigenvalues ---    0.21860   0.21911   0.21911   0.21958   0.21965
     Eigenvalues ---    0.21999   0.22000   0.22972   0.22974   0.23995
     Eigenvalues ---    0.23999   0.24368   0.24500   0.24847   0.24861
     Eigenvalues ---    0.24897   0.24932   0.24944   0.24976   0.24992
     Eigenvalues ---    0.24995   0.24998   0.24999   0.24999   0.25000
     Eigenvalues ---    0.25000   0.25000   0.25000   0.25000   0.29331
     Eigenvalues ---    0.29400   0.29604   0.29731   0.30436   0.30438
     Eigenvalues ---    0.33893   0.33967   0.34021   0.34056   0.34057
     Eigenvalues ---    0.34065   0.34072   0.34076   0.34084   0.34092
     Eigenvalues ---    0.34116   0.34116   0.34247   0.34259   0.34261
     Eigenvalues ---    0.34268   0.34270   0.34271   0.34311   0.34335
     Eigenvalues ---    0.34346   0.34363   0.34978   0.34980   0.34981
     Eigenvalues ---    0.35026   0.35029   0.35080   0.35110   0.35114
     Eigenvalues ---    0.35652   0.37219   0.37249   0.38151   0.38256
     Eigenvalues ---    0.41507   0.41516   0.41547   0.41841   0.41869
     Eigenvalues ---    0.42438   0.44080   0.44594   0.45378   0.45538
     Eigenvalues ---    0.45652   0.45669   0.45732   0.45762   0.45944
     Eigenvalues ---    0.45946   0.51315   0.51349   0.55583   0.56030
     Eigenvalues ---    0.56179   0.56234   0.96662   0.96729   0.98211
     Eigenvalues ---    0.98220
 RFO step:  Lambda=-2.15348832D-02 EMin= 3.55883253D-03
 Linear search not attempted -- first point.
 Iteration  1 RMS(Cart)=  0.14787004 RMS(Int)=  0.00236204
 Iteration  2 RMS(Cart)=  0.00663406 RMS(Int)=  0.00056967
 Iteration  3 RMS(Cart)=  0.00001211 RMS(Int)=  0.00056964
 Iteration  4 RMS(Cart)=  0.00000007 RMS(Int)=  0.00056964
 Variable       Old X    -DE/DX   Delta X   Delta X   Delta X     New X
                                 (Linear)    (Quad)   (Total)
    R1        2.71123  -0.00124   0.00000  -0.00132  -0.00140   2.70984
    R2        2.52159   0.02373   0.00000   0.04116   0.04110   2.56270
    R3        2.78201  -0.00098   0.00000  -0.00515  -0.00504   2.77697
    R4        2.78429  -0.00055   0.00000  -0.00426  -0.00420   2.78010
    R5        2.52251   0.02302   0.00000   0.04003   0.03989   2.56240
    R6        2.66924   0.00042   0.00000  -0.00096  -0.00093   2.66831
    R7        2.29364  -0.00014   0.00000  -0.00014  -0.00014   2.29349
    R8        2.64006   0.00301   0.00000   0.00727   0.00727   2.64733
    R9        2.73995   0.00339   0.00000   0.00838   0.00838   2.74833
   R10        2.75472   0.01351   0.00000   0.03430   0.03430   2.78902
   R11        2.64437   0.00172   0.00000   0.00441   0.00441   2.64878
   R12        2.75518   0.01374   0.00000   0.03491   0.03491   2.79008
   R13        2.67311   0.00026   0.00000  -0.00145  -0.00138   2.67173
   R14        2.74147   0.00235   0.00000   0.00582   0.00582   2.74729
   R15        2.29360   0.00041   0.00000   0.00041   0.00041   2.29401
   R16        2.88759  -0.00071   0.00000  -0.00223  -0.00223   2.88537
   R17        2.07135   0.00031   0.00000   0.00086   0.00086   2.07220
   R18        2.07295  -0.00286   0.00000  -0.00790  -0.00790   2.06505
   R19        2.89317  -0.00048   0.00000  -0.00152  -0.00152   2.89165
   R20        2.07209  -0.00069   0.00000  -0.00190  -0.00190   2.07019
   R21        2.06722   0.00042   0.00000   0.00115   0.00115   2.06837
   R22        2.87102   0.00547   0.00000   0.01677   0.01677   2.88779
   R23        2.07234   0.00004   0.00000   0.00012   0.00012   2.07246
   R24        2.07189  -0.00009   0.00000  -0.00026  -0.00026   2.07163
   R25        2.06892  -0.00058   0.00000  -0.00158  -0.00158   2.06734
   R26        2.06880  -0.00084   0.00000  -0.00230  -0.00230   2.06650
   R27        2.06750  -0.00015   0.00000  -0.00040  -0.00040   2.06711
   R28        2.64514  -0.00308   0.00000  -0.00629  -0.00629   2.63885
   R29        2.65000  -0.00594   0.00000  -0.01237  -0.01237   2.63763
   R30        2.64450  -0.01168   0.00000  -0.02442  -0.02442   2.62009
   R31        2.05545  -0.00218   0.00000  -0.00586  -0.00586   2.04959
   R32        2.64052  -0.01065   0.00000  -0.02206  -0.02206   2.61846
   R33        2.05705  -0.00329   0.00000  -0.00885  -0.00885   2.04820
   R34        2.64329  -0.00577   0.00000  -0.01218  -0.01218   2.63111
   R35        2.05711  -0.00353   0.00000  -0.00949  -0.00949   2.04762
   R36        2.64624  -0.00719   0.00000  -0.01523  -0.01523   2.63101
   R37        2.80215  -0.00045   0.00000  -0.00124  -0.00124   2.80091
   R38        2.05490  -0.00307   0.00000  -0.00824  -0.00824   2.04666
   R39        2.29978  -0.01235   0.00000  -0.01249  -0.01249   2.28729
   R40        2.54099   0.00388   0.00000   0.00664   0.00664   2.54763
   R41        1.85261  -0.00876   0.00000  -0.01639  -0.01639   1.83622
   R42        2.88504   0.00035   0.00000   0.00109   0.00109   2.88613
   R43        2.07135  -0.00167   0.00000  -0.00460  -0.00460   2.06676
   R44        2.07385  -0.00200   0.00000  -0.00555  -0.00555   2.06830
   R45        2.89175  -0.00021   0.00000  -0.00066  -0.00066   2.89110
   R46        2.07236  -0.00110   0.00000  -0.00305  -0.00305   2.06931
   R47        2.06809   0.00078   0.00000   0.00213   0.00213   2.07023
   R48        2.87098   0.00564   0.00000   0.01731   0.01731   2.88828
   R49        2.07202   0.00023   0.00000   0.00062   0.00062   2.07264
   R50        2.07221  -0.00035   0.00000  -0.00097  -0.00097   2.07124
   R51        2.06876  -0.00047   0.00000  -0.00130  -0.00130   2.06746
   R52        2.06875  -0.00083   0.00000  -0.00229  -0.00229   2.06646
   R53        2.06768  -0.00021   0.00000  -0.00057  -0.00057   2.06710
   R54        2.64533  -0.00502   0.00000  -0.01035  -0.01035   2.63498
   R55        2.64737  -0.00301   0.00000  -0.00606  -0.00607   2.64131
   R56        2.64435  -0.01119   0.00000  -0.02347  -0.02347   2.62088
   R57        2.05628  -0.00300   0.00000  -0.00808  -0.00808   2.04820
   R58        2.64541  -0.00671   0.00000  -0.01430  -0.01429   2.63112
   R59        2.05496  -0.00321   0.00000  -0.00862  -0.00862   2.04635
   R60        2.64393  -0.00619   0.00000  -0.01306  -0.01306   2.63087
   R61        2.80196  -0.00030   0.00000  -0.00082  -0.00082   2.80113
   R62        2.64066  -0.01100   0.00000  -0.02273  -0.02273   2.61793
   R63        2.05708  -0.00342   0.00000  -0.00921  -0.00921   2.04786
   R64        2.05633  -0.00273   0.00000  -0.00734  -0.00734   2.04899
   R65        2.54051   0.00345   0.00000   0.00591   0.00591   2.54642
   R66        2.30006  -0.01224   0.00000  -0.01238  -0.01238   2.28768
   R67        1.85228  -0.00869   0.00000  -0.01624  -0.01624   1.83604
    A1        1.89681  -0.00120   0.00000   0.00233   0.00211   1.89892
    A2        1.88593  -0.00093   0.00000  -0.00826  -0.00822   1.87770
    A3        2.49980   0.00213   0.00000   0.00601   0.00623   2.50602
    A4        1.88498  -0.00069   0.00000  -0.00761  -0.00762   1.87736
    A5        1.89633  -0.00068   0.00000   0.00422   0.00397   1.90030
    A6        2.50093   0.00136   0.00000   0.00335   0.00364   2.50457
    A7        1.79189   0.00729   0.00000   0.02092   0.02027   1.81217
    A8        2.22196   0.01928   0.00000   0.07523   0.07487   2.29683
    A9        2.26811  -0.02647   0.00000  -0.09359  -0.09393   2.17418
   A10        1.94493  -0.00181   0.00000  -0.00750  -0.00772   1.93721
   A11        2.12113  -0.00142   0.00000  -0.00470  -0.00436   2.11677
   A12        2.20119   0.00326   0.00000   0.01255   0.01236   2.21355
   A13        1.90571  -0.00353   0.00000  -0.00657  -0.00702   1.89869
   A14        2.19543   0.01166   0.00000   0.03984   0.03987   2.23529
   A15        2.18199  -0.00811   0.00000  -0.03297  -0.03294   2.14905
   A16        1.90745  -0.00423   0.00000  -0.00995  -0.01034   1.89711
   A17        2.18432   0.01219   0.00000   0.04222   0.04231   2.22663
   A18        2.19128  -0.00794   0.00000  -0.03193  -0.03184   2.15944
   A19        1.94087  -0.00080   0.00000  -0.00412  -0.00434   1.93653
   A20        2.21423   0.00117   0.00000   0.00570   0.00547   2.21970
   A21        2.11573  -0.00027   0.00000   0.00061   0.00090   2.11664
   A22        1.79416   0.00667   0.00000   0.01862   0.01792   1.81208
   A23        2.21675   0.01979   0.00000   0.07753   0.07693   2.29368
   A24        2.27073  -0.02634   0.00000  -0.09277  -0.09332   2.17741
   A25        2.00776  -0.00032   0.00000  -0.00406  -0.00430   2.00347
   A26        1.88135   0.00426   0.00000   0.03646   0.03665   1.91800
   A27        1.88989  -0.00590   0.00000  -0.05415  -0.05404   1.83585
   A28        1.93129  -0.00282   0.00000  -0.00744  -0.00763   1.92366
   A29        1.89681   0.00382   0.00000   0.01559   0.01504   1.91185
   A30        1.84992   0.00095   0.00000   0.01387   0.01429   1.86422
   A31        1.92452   0.00535   0.00000   0.02337   0.02337   1.94789
   A32        1.91976  -0.00280   0.00000  -0.01907  -0.01908   1.90068
   A33        1.93059  -0.00164   0.00000  -0.00513  -0.00531   1.92528
   A34        1.91891  -0.00111   0.00000  -0.00367  -0.00353   1.91539
   A35        1.90515  -0.00107   0.00000   0.00258   0.00254   1.90770
   A36        1.86397   0.00110   0.00000   0.00118   0.00108   1.86505
   A37        1.95381   0.00300   0.00000   0.01524   0.01522   1.96903
   A38        1.91911  -0.00188   0.00000  -0.01152  -0.01167   1.90745
   A39        1.91365  -0.00120   0.00000  -0.00744  -0.00753   1.90612
   A40        1.89845   0.00046   0.00000   0.00946   0.00951   1.90796
   A41        1.90770  -0.00036   0.00000   0.00294   0.00297   1.91067
   A42        1.86910  -0.00015   0.00000  -0.00960  -0.00971   1.85939
   A43        1.93471   0.00077   0.00000   0.00375   0.00370   1.93841
[...]
 89,0.00002147,0.00007683,-0.00001347,0.00004991,0.00001422,0.00000025,
 -0.00002792,0.00000020,0.00000405,-0.00000146,-0.00004187,-0.00000531,
 -0.00002502,-0.00000957,-0.00000973,-0.00000222,-0.00001227,0.00001318
 ,-0.00000459,0.00000899,0.00000670,-0.00000107,-0.00003576,-0.00001803
 ,0.00002579,0.00001651,0.00000378,0.00000274,0.00001448,0.00019101,-0.
 00002033,0.00006158,-0.00013804,0.00002444,-0.00004442,-0.00020513,0.0
 0001719,0.00002898,0.00011750,-0.00002341,-0.00002623,-0.00035674,-0.0
 0004625,-0.00000411,0.00003027,0.00003251,0.00001355,0.00003065,0.0000
 1335,-0.00002408,0.00003329,-0.00002346,0.00000296,-0.00000439,0.00000
 238,-0.00000763,-0.00001321,-0.00000494,0.00001867,0.00065333,0.000065
 50,0.00007424,-0.00029111,0.00004364,-0.00012297,-0.00024777,-0.000118
 87,0.00002656,0.00004943,0.00002402,-0.00013939,0.00007791,-0.00004246
 ,-0.00003635,0.00002451,0.00007726,-0.00013355,0.00000244,0.00014536,0
 .00003214,-0.00008935,0.00001772,-0.00006929,-0.00000871,0.00002432,0.
 00004598,-0.00004827,-0.00001394,0.00002310,-0.00000989,-0.00014249,0.
 00001710,0.00001236,-0.00003469,-0.00002741,-0.00000852,0.00002107,0.0
 0003473,-0.00002047,-0.00001367,-0.00001819,-0.00000111,-0.00001016,0.
 00005355,0.00000660,0.00001671,-0.00000694,-0.00001624,0.00001064,0.00
 114430,-0.00032923,0.00044185,0.00046933,0.00023659,0.00033542,0.00120
 400,-0.00433438,0.00057982,0.03657036,-0.02640440,0.02304700,-0.004129
 09,-0.00553751,-0.00298682,0.00141201,-0.00196652,0.00082272,0.0000483
 7,-0.00071487,0.00002942,0.00002706,-0.00012044,-0.00003658,0.00070934
 ,-0.00336186,0.00038042,0.00005357,0.00033986,0.00002238,0.07626305,-0
 .16747131,0.04685284,-0.02935464,0.66274508,0.00047051,0.00022768,0.00
 004262,0.00034405,0.00032457,0.00010306,-0.00003569,-0.00015293,-0.000
 02958,0.00004407,0.00006062,0.00006611,0.00003834,-0.00036557,-0.00002
 676,-0.00003547,0.00008625,0.00001724,-0.00037668,0.00007184,-0.000088
 42,0.00018431,-0.00010865,0.00004086,-0.00073876,0.00005078,-0.0000916
 5,0.00045707,-0.00023684,0.00008870,-0.00016961,-0.00004326,-0.0000029
 3,0.00003052,0.00000090,0.00000868,0.00002056,0.00003909,-0.00000033,-
 0.00001245,-0.00002825,-0.00001559,-0.00003063,0.00000725,-0.00001869,
 -0.00000483,0.00000365,0.00001481,0.00000086,-0.00000357,0.00000289,0.
 00001369,-0.00000171,0.00000524,0.00000487,0.00000782,0.00000381,0.000
 00564,-0.00000819,-0.00000041,-0.00000310,-0.00000380,0.00000129,0.000
 01415,0.00000684,-0.00000933,-0.00000564,0.00000156,0.00000238,-0.0000
 0440,-0.00007473,0.00000587,-0.00003110,0.00005987,-0.00001078,0.00001
 710,0.00007840,-0.00000485,-0.00001130,-0.00004463,0.00001197,0.000010
 76,0.00014323,0.00001870,0.00000215,-0.00001330,-0.00001131,-0.0000018
 2,-0.00001239,-0.00000712,0.00001172,-0.00001230,0.00000548,-0.0000009
 7,0.00000089,-0.00000232,0.00000370,0.00000722,0.00000070,-0.00001739,
 -0.00025763,-0.00003803,-0.00002384,0.00011103,-0.00000941,0.00005432,
 0.00010096,0.00005596,-0.00001074,-0.00001922,-0.00001284,0.00003053,-
 0.00003241,-0.00001639,0.00001441,-0.00002399,-0.00004588,0.00004666,-
 0.00001689,-0.00005606,-0.00001140,0.00003422,-0.00000184,0.00001832,-
 0.00002146,0.00000256,-0.00001341,0.00001771,0.00000664,-0.00001633,0.
 00000717,0.00005987,0.00000653,-0.00000837,-0.00000434,0.00001248,0.00
 000730,-0.00002295,-0.00001572,0.00002121,0.00001172,-0.00000060,0.000
 00068,0.00001949,-0.00001369,-0.00000669,-0.00000289,0.00000220,0.0000
 1411,-0.00000281,-0.00016356,0.00002337,0.00016860,0.00065696,0.000711
 44,-0.00033171,-0.00237884,-0.00081141,-0.00061316,-0.00614526,0.00737
 570,0.00565661,0.00012621,-0.00056228,0.00150078,0.00066169,0.00023179
 ,0.00014694,0.00006983,0.00004558,-0.00012550,-0.00001172,0.00015673,0
 .00000026,0.00051199,-0.00002751,0.00067912,0.00047091,-0.00088079,0.0
 0049524,-0.09081630,0.02533342,-0.12274058,0.18004457,0.00404974,0.158
 66740,0.00005602,0.00020047,0.00003804,0.00001346,-0.00026677,-0.00008
 569,-0.00025257,0.00007037,-0.00004163,0.00024960,-0.00013891,0.000002
 95,-0.00021767,-0.00002739,0.00015008,0.00023251,-0.00012008,0.0000319
 5,0.00012815,0.00003639,0.00002769,-0.00001259,-0.00011984,0.00001599,
 0.00007616,0.00036892,-0.00000626,-0.00002840,-0.00019528,0.00004561,0
 .00007562,0.00003350,-0.00001289,-0.00001196,0.00000092,-0.00000775,-0
 .00001394,-0.00001591,-0.00000044,0.00001338,0.00002109,0.00000248,0.0
 0000828,0.00001017,0.00000760,-0.00000225,0.00000404,-0.00000959,0.000
 00410,-0.00000979,0.00000341,-0.00000777,-0.00000037,-0.00000706,-0.00
 000181,-0.00000354,-0.00000095,0.00000622,-0.00000415,0.00000248,0.000
 00566,-0.00000597,0.00000158,-0.00000800,-0.00000157,0.00000574,0.0000
 0050,0.00000371,-0.00000140,0.00000836,0.00001561,0.00000031,0.0000225
 2,-0.00001746,0.00000295,-0.00002411,-0.00006039,-0.00000096,0.0000093
 5,0.00003520,-0.00000493,-0.00000914,-0.00009709,-0.00001396,0.0000077
 8,0.00000068,0.00001228,0.00000413,0.00000873,0.00000879,-0.00001128,0
 .00000883,-0.00000563,-0.00000094,-0.00000452,0.00000051,-0.00000343,-
 0.00000083,-0.00000078,-0.00002075,0.00018495,0.00000061,0.00003819,-0
 .00008943,0.00002205,-0.00001783,-0.00006183,-0.00002235,0.00000275,0.
 00001298,0.00000565,-0.00023516,-0.00011855,-0.00001813,0.00002590,0.0
 0000866,-0.00004445,-0.00003800,0.00000844,0.00000570,0.00003431,-0.00
 001906,0.00000942,-0.00003671,-0.00010657,0.00006643,0.00000062,0.0000
 0977,-0.00001319,-0.00001507,-0.00001067,0.00000944,0.00003708,0.00001
 237,-0.00003485,0.00000901,0.00004147,-0.00003676,0.00000202,0.0000226
 5,0.00000458,-0.00001829,-0.00001132,0.00002866,0.00003175,-0.00001172
 ,0.00001326,-0.00000654,0.00002794,-0.00000500,0.00033123,0.00082614,0
 .00005098,0.00027432,-0.00076631,0.00118045,0.00213452,0.00080870,-0.0
 0029338,0.00473363,-0.02116758,-0.01066118,-0.00471611,0.00435539,-0.0
 0311717,0.00081364,-0.00154536,0.00094617,0.00003841,-0.00026127,-0.00
 000209,-0.00001581,-0.00011239,0.00009571,0.00090561,0.00082965,0.0001
 7006,0.00189328,-0.00062715,0.00154375,-0.39088965,-0.25216562,-0.2171
 1937,-0.06536839,-0.01645647,-0.06350478,0.44992182,-0.00116785,-0.000
 63791,-0.00007256,-0.00085483,-0.00087958,-0.00025200,-0.00010843,0.00
 061950,-0.00003993,0.00021323,-0.00052159,-0.00003036,-0.00028917,0.00
 154679,0.00033922,0.00035837,-0.00041218,0.00004042,0.00089319,-0.0001
 6638,0.00022268,-0.00046049,-0.00004639,-0.00005445,0.00181705,0.00053
 765,0.00009869,-0.00110416,0.00014638,0.00006042,0.00054149,0.00015433
 ,-0.00004394,-0.00009611,-0.00002198,-0.00005482,-0.00007333,-0.000104
 84,0.00000836,0.00005249,0.00009518,0.00002374,0.00009162,-0.00000488,
 0.00006165,0.00001427,0.00000541,-0.00003723,0.00000443,-0.00000436,0.
 00000195,-0.00005424,-0.00000833,-0.00003602,-0.00001153,-0.00001194,-
 0.00000183,-0.00000795,0.00000954,-0.00000373,0.00001508,0.00000178,0.
 00000068,-0.00004619,-0.00002116,0.00003374,0.00001903,0.00000886,0.00
 000349,0.00002201,0.00023222,-0.00002701,0.00008285,-0.00017022,0.0000
 2892,-0.00006710,-0.00028015,0.00001997,0.00003975,0.00016086,-0.00002
 811,-0.00003627,-0.00047734,-0.00006257,0.00000066,0.00003564,0.000046
 67,0.00001985,0.00004162,0.00002071,-0.00003418,0.00004470,-0.00003244
 ,0.00000297,-0.00000852,0.00000221,-0.00001081,-0.00001457,-0.00000695
 ,0.00000121,0.00088151,0.00006837,0.00011557,-0.00039996,0.00007055,-0
 .00015075,-0.00032530,-0.00014751,0.00003242,0.00006546,0.00003005,-0.
 00034756,0.00001231,-0.00006478,-0.00001054,0.00002608,0.00003205,-0.0
 0016006,0.00001973,0.00014474,0.00006470,-0.00009813,0.00002302,-0.000
 09807,-0.00006005,0.00007182,0.00004270,-0.00004541,-0.00002059,0.0000
 1338,-0.00000722,-0.00012950,0.00004309,0.00001474,-0.00006624,-0.0000
 2693,0.00001093,0.00000022,0.00003535,-0.00000981,-0.00000795,-0.00003
 472,-0.00000537,0.00000998,0.00008321,-0.00000006,0.00002713,-0.000010
 62,-0.00000097,0.00001092,-0.00077683,-0.00034257,-0.00099154,-0.00118
 904,-0.00331324,-0.00075736,0.00662069,-0.00474781,0.00390101,-0.03637
 837,-0.03750522,-0.02600682,-0.00313491,-0.00037917,-0.00205234,-0.000
 70817,0.00023303,-0.00055252,0.00011175,-0.00018423,0.00011083,0.00023
 801,-0.00078905,-0.00001410,-0.00016616,0.00011249,-0.00014129,-0.0002
 4838,-0.00168476,-0.00020247,-0.24974622,-0.34451929,-0.17481821,-0.00
 078191,0.03786928,-0.00023251,0.29417091,0.35273999,-0.00014473,0.0000
 3007,0.00005778,-0.00007485,-0.00021932,-0.00005576,-0.00014406,0.0000
 3922,-0.00004914,0.00010830,-0.00004612,-0.00000216,-0.00015216,-0.000
 01254,0.00025492,0.00012711,-0.00007018,0.00003691,0.00016292,-0.00000
 992,0.00002740,-0.00004788,-0.00002731,0.00000048,0.00029948,0.0001216
 3,-0.00001289,-0.00011993,0.00002499,0.00005286,0.00009187,0.00003248,
 -0.00002207,-0.00001627,-0.00001109,-0.00001703,-0.00001347,-0.0000139
 2,0.00000427,0.00000926,0.00001665,-0.00000102,0.00001284,0.00000390,0
 .00001075,0.00000179,0.00000618,-0.00000351,0.00000268,-0.00000401,0.0
 0000185,-0.00001116,-0.00000591,-0.00001131,-0.00000038,0.00000148,0.0
 0000294,0.00000095,-0.00000248,-0.00000151,0.00000321,-0.00000235,0.00
 000108,-0.00000694,-0.00000283,0.00000664,0.00000260,0.00000550,0.0000
 0364,0.00000500,0.00002715,0.00000073,0.00001591,-0.00001992,0.0000072
 0,-0.00002237,-0.00005773,0.00000219,0.00000894,0.00003256,-0.00000388
 ,-0.00000853,-0.00008531,-0.00001277,0.00000410,0.00000072,0.00001245,
 0.00000611,0.00000733,0.00000255,-0.00000687,0.00000733,-0.00000777,0.
 00000064,-0.00000406,-0.00000136,-0.00000147,-0.00000128,-0.00000217,-
 0.00001272,0.00015615,-0.00000231,0.00002808,-0.00007445,0.00002213,-0
 .00001924,-0.00005190,-0.00001595,0.00000502,0.00001061,0.00000190,-0.
 00012037,-0.00001488,-0.00003729,0.00002451,-0.00002839,-0.00004272,-0
 .00001430,-0.00000646,0.00000095,0.00001862,-0.00000486,0.00001192,-0.
 00001983,-0.00002381,0.00002938,-0.00000016,-0.00000075,0.00000231,-0.
 00001602,0.00000634,0.00001123,0.00002622,-0.00001062,-0.00003752,0.00
 000476,0.00000335,-0.00002201,-0.00000335,0.00001648,0.00001097,-0.000
 01269,0.00000178,0.00002569,0.00001537,-0.00000323,0.00000850,-0.00000
 244,0.00001063,0.00000497,0.00014504,0.00057911,0.00013828,0.00113384,
 -0.00056921,-0.00086708,-0.00001828,0.00024024,0.00256260,-0.01127051,
 -0.01601493,0.01178161,-0.00330976,0.00288376,-0.00203910,0.00094850,-
 0.00098773,-0.00001860,0.00000004,-0.00017865,0.00005189,0.00010709,-0
 .00007995,-0.00018972,0.00016995,0.00054305,0.00077027,0.00156712,-0.0
 0048534,0.00059580,-0.21707391,-0.17643522,-0.22631417,-0.06295713,-0.
 01061514,-0.01261453,0.28652388,0.20600988,0.23005546,-0.00018218,-0.0
 0008925,-0.00001546,-0.00013834,-0.00009453,-0.00002223,0.00004849,0.0
 0006178,-0.00000140,-0.00003533,-0.00004413,-0.00000396,0.00007804,0.0
 0015327,0.00004431,-0.00000772,-0.00002598,0.00000183,0.00013335,-0.00
 003095,0.00002710,-0.00008072,0.00003574,-0.00000994,0.00025186,-0.000
 00363,0.00001136,-0.00017640,0.00006216,0.00000960,0.00007249,0.000015
 61,-0.00000543,-0.00001284,-0.00000521,-0.00000830,-0.00000798,-0.0000
 1251,0.00000213,0.00000586,0.00000988,0.00000230,0.00001472,-0.0000059
 6,0.00000892,0.00000376,0.00000004,-0.00000251,-0.00000109,0.00000282,
 -0.00000067,-0.00000758,-0.00000195,-0.00000471,-0.00000135,-0.0000000
 5,0.00000057,-0.00000411,0.00000357,-0.00000236,0.00000022,0.00000298,
 -0.00000043,-0.00000554,-0.00000379,0.00000430,0.00000379,0.00000056,0
 .00000193,0.00000146,0.00002894,-0.00000369,0.00000703,-0.00002070,0.0
 0000545,-0.00000582,-0.00002748,0.00000345,0.00000357,0.00001536,-0.00
 000320,-0.00000354,-0.00004782,-0.00000630,-0.00000171,0.00000460,0.00
 000482,0.00000268,0.00000428,-0.00000027,-0.00000222,0.00000438,-0.000
 00385,0.00000102,-0.00000025,-0.00000023,-0.00000034,-0.00000218,-0.00
 000131,0.00000751,0.00008628,0.00001010,0.00000631,-0.00003736,0.00000
 558,-0.00001994,-0.00003362,-0.00001619,0.00000511,0.00000646,0.000002
 48,0.00000341,0.00003033,-0.00000601,-0.00000450,-0.00000358,0.0000071
 1,-0.00001237,-0.00000091,0.00000907,0.00000119,-0.00000334,0.00000095
 ,-0.00000337,0.00001713,-0.00000332,0.00000398,-0.00000662,0.00000312,
 0.00000317,0.00000252,-0.00001003,-0.00000163,-0.00000116,-0.00000199,
 -0.00000296,-0.00000966,0.00000591,0.00000184,-0.00000346,-0.00000137,
 0.00000019,0.00000245,-0.00000320,0.00000214,0.00000303,0.00000043,-0.
 00000015,-0.00000682,0.00000289,-0.00002977,-0.00017778,-0.00006730,0.
 00027578,-0.00012928,0.00009690,-0.00044901,-0.00068976,-0.00001326,-0
 .00304058,0.00081706,-0.00546817,0.00045971,0.00115103,0.00006901,-0.0
 0044757,0.00009976,-0.00005240,-0.00000743,0.00009063,0.00003633,0.000
 02377,-0.00001340,-0.00001550,0.00043092,0.00018349,0.00041288,-0.0000
 4498,0.00011949,-0.00014229,0.00433677,0.04937032,0.00143371,-0.042332
 13,-0.06752287,-0.01979565,-0.00016572,-0.00736942,0.00403999,0.041046
 79,0.00015834,0.00008646,0.00001436,0.00012110,0.00011103,0.00003049,-
 0.00000388,-0.00009855,0.00000190,-0.00001384,0.00007418,0.00000512,0.
 00001128,-0.00019640,-0.00004392,-0.00003663,0.00005880,-0.00000321,-0
 .00011497,0.00001451,-0.00003154,0.00006672,0.00001813,0.00001056,-0.0
 0021926,-0.00008939,-0.00001398,0.00012596,-0.00000221,-0.00000040,-0.
 00007527,-0.00002235,0.00000384,0.00001210,0.00000048,0.00000588,0.000
 01016,0.00001499,0.00000002,-0.00000738,-0.00001435,-0.00000368,-0.000
 01308,0.00000012,-0.00000846,-0.00000134,0.00000010,0.00000640,-0.0000
 0033,0.00000098,-0.00000034,0.00000676,-0.00000006,0.00000400,0.000002
 03,0.00000291,0.00000110,0.00000066,-0.00000173,0.00000005,-0.00000240
 ,-0.00000022,-0.00000002,0.00000767,0.00000335,-0.00000468,-0.00000282
 ,-0.00000065,0.00000058,-0.00000474,-0.00003271,0.00000382,-0.00001039
 ,0.00002386,-0.00000277,0.00000799,0.00003635,-0.00000308,-0.00000518,
 -0.00002141,0.00000388,0.00000439,0.00006785,0.00000827,0.00000026,-0.
 00000602,-0.00000598,-0.00000310,-0.00000573,-0.00000357,0.00000420,-0
 .00000645,0.00000482,-0.00000046,0.00000042,-0.00000056,0.00000170,0.0
 0000173,0.00000091,-0.00000270,-0.00013080,-0.00001276,-0.00001531,0.0
 0005934,-0.00000857,0.00002368,0.00005064,0.00002336,-0.00000511,-0.00
 001089,-0.00000480,0.00002897,-0.00001368,0.00000936,0.00000354,-0.000
 00311,-0.00000792,0.00001921,-0.00000135,-0.00001790,-0.00000587,0.000
 01114,-0.00000220,0.00001025,-0.00000526,-0.00000368,-0.00000470,0.000
 00686,0.,-0.00000298,-0.00000077,0.00001670,-0.00000216,-0.00000202,0.
 00000469,0.00000468,0.00000393,-0.00000465,-0.00000429,0.00000440,0.00
 000271,0.00000296,-0.00000026,0.00000260,-0.00000922,-0.00000198,-0.00
 000233,0.00000149,0.00000453,-0.00000248,-0.00009511,0.00008843,-0.000
 01033,-0.00009272,0.00009475,-0.00006681,0.00004176,0.00081463,0.00007
 516,0.00268199,0.00149056,0.00162883,-0.00022795,-0.00080115,-0.000207
 22,0.00037688,0.00016611,0.00030192,-0.00002151,-0.00006393,-0.0000224
 4,-0.00000437,0.00000200,0.00000646,-0.00005894,0.00001316,-0.00003760
 ,0.00013656,-0.00008822,0.00008305,0.00665095,-0.03198147,0.00303379,-
 0.02597809,-0.49106207,-0.03540930,-0.00751760,0.00258382,-0.00463687,
 0.02403948,0.51875460,-0.00005541,-0.00004111,-0.00001373,-0.00003889,
 -0.00003212,-0.00001365,-0.00000155,0.00005177,0.00000927,0.00001543,-
 0.00005266,-0.00001469,0.00000234,0.00011154,0.00002320,0.00002463,-0.
 00003539,-0.00000666,0.00002851,-0.00000370,0.00001544,-0.00001944,-0.
 00002752,-0.00001153,0.00007217,0.00006798,0.00001811,-0.00003767,-0.0
 0002617,-0.00002511,0.00002565,0.00000775,0.00000482,-0.00000454,0.000
 00475,0.00000220,-0.00000379,-0.00000878,-0.00000179,0.00000353,0.0000
 0697,0.00000494,0.00000409,0.00000089,0.00000244,-0.00000081,-0.000001
 84,-0.00000527,0.00000030,-0.00000111,-0.00000037,-0.00000107,0.000002
 70,0.00000118,-0.00000137,-0.00000393,-0.00000253,0.00000079,0.0000014
 5,0.00000187,0.00000141,-0.00000046,-0.00000020,-0.00000297,-0.0000007
 6,0.00000139,0.00000011,-0.00000131,-0.00000272,0.00000234,0.00001399,
 -0.00000114,0.00000676,-0.00001238,-0.00000008,-0.00000160,-0.00001383
 ,0.00000035,0.00000196,0.00000803,-0.00000214,-0.00000166,-0.00002900,
 -0.00000330,-0.00000019,0.00000388,0.00000125,-0.00000048,0.00000295,0
 .00000349,-0.00000256,0.00000286,-0.00000073,-0.00000023,0.00000023,0.
 00000112,-0.00000130,-0.00000137,0.00000044,0.00000405,0.00005556,0.00
 001075,0.00000540,-0.00002399,-0.00000013,-0.00001135,-0.00002247,-0.0
 0001426,0.00000163,0.00000429,0.00000416,-0.00001796,-0.00000988,0.000
 00300,-0.00000202,0.00001146,0.00000510,-0.00001023,0.00000332,0.00001
 534,0.00000505,-0.00001099,0.00000111,-0.00000514,-0.00000329,0.000003
 81,0.00000114,-0.00000128,-0.00000191,0.00000304,-0.00000335,-0.000011
 15,-0.00000115,0.00000488,0.00000296,-0.00000237,0.00000314,0.00000406
 ,0.00000399,-0.00000542,-0.00000416,0.00000043,-0.00000233,-0.00000515
 ,0.00000456,0.00000092,0.00000108,-0.00000114,-0.00000116,-0.00000060,
 -0.00003072,-0.00011114,-0.00001765,0.00008468,-0.00007092,0.00019373,
 0.00002370,-0.00041944,-0.00047930,-0.00540509,0.00039936,0.00169971,-
 0.00001091,0.00073903,0.00046404,-0.00002031,0.00006973,-0.00043627,0.
 00002906,0.00006740,-0.00002512,-0.00000697,-0.00000955,0.00001837,0.0
 0041000,0.00012376,0.00004835,-0.00014719,0.00007140,0.00008419,-0.000
 22253,0.03148001,0.00597450,-0.01815997,-0.06308832,-0.03095260,0.0040
 3538,-0.00453444,-0.00416713,0.01942845,0.03528946,0.02759532\\-0.0000
 0594,-0.00000678,0.00001081,0.00001577,-0.00000250,0.00001625,-0.00001
 529,0.00003443,-0.00001052,0.00000309,-0.00001678,0.00000701,-0.000004
 69,0.00000880,-0.00001018,0.00001379,-0.00002182,0.00000397,-0.0000134
 6,-0.00001285,-0.00000264,0.00000378,-0.00001281,-0.00000834,0.0000089
 1,0.00000073,0.00000934,-0.00000393,0.00000790,-0.00000348,-0.00000753
 ,0.00000526,-0.00000531,0.00000191,0.00000111,0.00000056,0.00000151,0.
 00000104,0.00000209,-0.00000077,0.00000087,0.00000044,-0.00000132,-0.0
 0000225,0.00000589,-0.00000002,-0.00000012,0.00000065,-0.00000008,0.00
 000069,0.00000014,-0.00000044,0.00000210,-0.00000272,-0.00000056,0.000
 00016,-0.00000045,-0.00000032,0.00000167,-0.00000046,0.00000051,0.0000
 0062,0.00000121,0.00000038,0.00000050,-0.00000016,-0.00000020,0.000000
 92,0.00000095,-0.00000485,0.00001500,-0.00001179,0.00000132,-0.0000031
 6,0.00000510,0.00000268,-0.00000106,0.00000223,-0.00000244,0.00000001,
 0.00000072,-0.00000185,-0.00000200,-0.00000013,0.00000115,0.00000193,0
 .00000174,-0.00000014,-0.00000470,0.00000107,0.00000077,-0.00000248,0.
 00000079,0.00000100,0.00000069,0.00000126,-0.00000118,0.00000019,0.000
 00058,0.00000632,-0.00000088,0.00000247,-0.00000298,0.00000072,0.00000
 067,-0.00000355,0.00000254,0.00000015,0.00000006,-0.00000317,0.0000014
 7,0.00000480,0.00001075,-0.00001449,-0.00000602,-0.00000068,-0.0000028
 8,-0.00000189,-0.00000203,0.00000129,0.00000402,-0.00000306,0.00000294
 ,0.00000134,-0.00000140,0.00000216,-0.00000112,-0.00000089,0.00000158,
 0.00000161,-0.00000103,0.00000459,0.00000034,0.00000108,-0.00000240,-0
 .00000006,0.00000060,-0.00000116,0.00000116,0.00000004,-0.00000155,0.0
 0000010,0.00000003,-0.00000016,0.00000016,-0.00000052,-0.00000074,-0.0
 0000009,-0.00000013,0.00000034,-0.00000167,0.00000376,-0.00000252,0.00
 000076,-0.00000155,0.00000031,0.00000230,0.00000291,-0.00000188,-0.000
 00202,-0.00000390,-0.00000288,-0.00000048,0.00000129,-0.00000406,-0.00
 000113,0.00000123,0.00000520,0.00000129,-0.00000213,-0.00000234,0.0000
 0135,-0.00000055,-0.00000068,0.00000033,0.00000007,-0.00000065,0.00000
 047,0.00000102,0.00000012,0.00000096,0.00000194,0.00000469,0.00000024,
 -0.00000403,-0.00000218,0.00000085,-0.00000011,-0.00000299,0.00000098,
 0.00000281,-0.00000107\\\@


 IT'S WHAT A FELLER THINKS HE KNOWS THAT HURTS HIM...
                    ------
           KIN HUBBARD
 Job cpu time:       0 days 15 hours  0 minutes  2.5 seconds.
 File lengths (MBytes):  RWF=   2908 Int=      0 D2E=      0 Chk=     38 Scr=      1
 Normal termination of Gaussian 09 at Fri May 24 19:19:12 2019.
