 Entering Gaussian System, Link 0=g09
 Input=antraceno.com
 Output=antraceno.log
 Initial command:
 /home/fbueno/g09/l1.exe "/home/fbueno/Documents/Forster-Ab Initio/Freq_S0/Gau-3198.inp" -scrdir="/home/fbueno/Documents/Forster-Ab Initio/Freq_S0/"
 Entering Link 1 = /home/fbueno/g09/l1.exe PID=      3201.
  
 Copyright (c) 1988,1990,1992,1993,1995,1998,2003,2009,2013,
            Gaussian, Inc.  All Rights Reserved.
  
 This is part of the Gaussian(R) 09 program.  It is based on
 the Gaussian(R) 03 system (copyright 2003, Gaussian, Inc.),
 the Gaussian(R) 98 system (copyright 1998, Gaussian, Inc.),
 the Gaussian(R) 94 system (copyright 1995, Gaussian, Inc.),
 the Gaussian 92(TM) system (copyright 1992, Gaussian, Inc.),
 the Gaussian 90(TM) system (copyright 1990, Gaussian, Inc.),
 the Gaussian 88(TM) system (copyright 1988, Gaussian, Inc.),
 the Gaussian 86(TM) system (copyright 1986, Carnegie Mellon
 University), and the Gaussian 82(TM) system (copyright 1983,
 Carnegie Mellon University). Gaussian is a federally registered
 trademark of Gaussian, Inc.
  
 This software contains proprietary and confidential information,
 including trade secrets, belonging to Gaussian, Inc.
  
 This software is provided under written license and may be
 used, copied, transmitted, or stored only in accord with that
 written license.
  
 The following legend is applicable only to US Government
 contracts under FAR:
  
                    RESTRICTED RIGHTS LEGEND
  
 Use, reproduction and disclosure by the US Government is
 subject to restrictions as set forth in subparagraphs (a)
 and (c) of the Commercial Computer Software - Restricted
 Rights clause in FAR 52.227-19.
  
 Gaussian, Inc.
 340 Quinnipiac St., Bldg. 40, Wallingford CT 06492
  
  
 ---------------------------------------------------------------
 Warning -- This program may not be used in any manner that
 competes with the business of Gaussian, Inc. or will provide
 assistance to any competitor of Gaussian, Inc.  The licensee
 of this program is prohibited from giving any competitor of
 Gaussian, Inc. access to this program.  By using this program,
 the user acknowledges that Gaussian, Inc. is engaged in the
 business of creating and licensing software in the field of
 computational chemistry and represents and warrants to the
 licensee that it is not a competitor of Gaussian, Inc. and that
 it will not use this program in any manner prohibited above.
 ---------------------------------------------------------------
  

 Cite this work as:
 Gaussian 09, Revision D.01,
 M. J. Frisch, G. W. Trucks, H. B. Schlegel, G. E. Scuseria, 
 M. A. Robb, J. R. Cheeseman, G. Scalmani, V. Barone, B. Mennucci, 
 G. A. Petersson, H. Nakatsuji, M. Caricato, X. Li, H. P. Hratchian, 
 A. F. Izmaylov, J. Bloino, G. Zheng, J. L. Sonnenberg, M. Hada, 
 M. Ehara, K. Toyota, R. Fukuda, J. Hasegawa, M. Ishida, T. Nakajima, 
 Y. Honda, O. Kitao, H. Nakai, T. Vreven, J. A. Montgomery, Jr., 
 J. E. Peralta, F. Ogliaro, M. Bearpark, J. J. Heyd, E. Brothers, 
 K. N. Kudin, V. N. Staroverov, T. Keith, R. Kobayashi, J. Normand, 
 K. Raghavachari, A. Rendell, J. C. Burant, S. S. Iyengar, J. Tomasi, 
 M. Cossi, N. Rega, J. M. Millam, M. Klene, J. E. Knox, J. B. Cross, 
 V. Bakken, C. Adamo, J. Jaramillo, R. Gomperts, R. E. Stratmann, 
 O. Yazyev, A. J. Austin, R. Cammi, C. Pomelli, J. W. Ochterski, 
 R. L. Martin, K. Morokuma, V. G. Zakrzewski, G. A. Voth, 
 P. Salvador, J. J. Dannenberg, S. Dapprich, A. D. Daniels, 
 O. Farkas, J. B. Foresman, J. V. Ortiz, J. Cioslowski, 
 and D. J. Fox, Gaussian, Inc., Wallingford CT, 2013.
 
 ******************************************
 Gaussian 09:  ES64L-G09RevD.01 24-Apr-2013
                30-Jun-2018 
 ******************************************
 %nproc=4
 Will use up to    4 processors via shared memory.
 %mem=1GB
 %chk=antraceno_B3LYPS0.chk
 -----------------------------------------------------------------
 # freq=savenormalmodes B3LYP/6-31g(d,p) nosymm geom=allcheckpoint
 -----------------------------------------------------------------
 1/10=4,29=7,30=1,38=1/1,3;
 2/12=2,15=1,40=1/2;
 3/5=1,6=6,7=101,11=2,14=-4,16=1,25=1,30=1,71=2,74=-5,140=1/1,2,3;
 4//1;
 5/5=2,38=5,98=1/2;
 8/6=4,10=90,11=11/1;
 11/6=1,8=1,9=11,15=111,16=1,31=1/1,2,10;
 10/6=1,31=1/2;
 6/7=2,8=2,9=2,10=2,18=1,28=1/1;
 7/8=1,10=1,25=1,30=1,92=1/1,2,3,16;
 1/10=4,30=1/3;
 99//99;
 Structure from the checkpoint file:  "antraceno_B3LYPS0.chk"
 ---------
 Antraceno
 ---------
 Charge =  0 Multiplicity = 1
 Redundant internal coordinates found in file.
 C,0,-4.0795439786,1.9956357117,0.0000000011
 C,0,-4.127717604,0.5703951231,0.0000000039
 C,0,-2.8759598065,2.6492554011,-0.0000000028
 C,0,-1.6442284779,1.9229640631,0.0000000029
 C,0,-2.9710088297,-0.162999055,0.0000000036
 C,0,-1.6930574742,0.4784751059,-0.0000000015
 H,0,-5.0070338911,2.5605706307,-0.0000000022
 H,0,-2.8368837408,3.7354727809,0.0000000026
 H,0,-5.0912270508,0.0693563405,0.0000000003
 H,0,-3.005350793,-1.2493788223,-0.000000004
 C,0,-0.3983076893,2.5622791284,0.0000000018
 C,0,0.8016158504,1.84031245,-0.0000000026
 C,0,0.7527867727,0.3958234513,0.000000002
 C,0,-0.4931339694,-0.2434915283,-0.0000000024
 H,0,-0.3615757786,3.6494288102,0.000000002
 H,0,-0.5298658625,-1.3306411433,-0.0000000031
 C,0,2.0795672813,2.481786576,0.0000000016
 C,0,3.2362760052,1.7483922937,-0.000000008
 C,0,3.1881022243,0.3231517076,0.0000000107
 C,0,1.9845180295,-0.3304678837,-0.0000000055
 H,0,2.1139092756,3.5681663615,-0.000000001
 H,0,4.1997854995,2.2494309976,-0.0000000073
 H,0,1.9454418797,-1.4166852521,-0.0000000037
 H,0,4.1155921283,-0.2417832485,0.000000012
 Recover connectivity data from disk.

 GradGradGradGradGradGradGradGradGradGradGradGradGradGradGradGradGradGrad
 Berny optimization.
 Initialization pass.
                           ----------------------------
                           !    Initial Parameters    !
                           ! (Angstroms and Degrees)  !
 --------------------------                            --------------------------
 ! Name  Definition              Value          Derivative Info.                !
 --------------------------------------------------------------------------------
 ! R1    R(1,2)                  1.4261         calculate D2E/DX2 analytically  !
 ! R2    R(1,3)                  1.3696         calculate D2E/DX2 analytically  !
 ! R3    R(1,7)                  1.086          calculate D2E/DX2 analytically  !
 ! R4    R(2,5)                  1.3696         calculate D2E/DX2 analytically  !
 ! R5    R(2,9)                  1.086          calculate D2E/DX2 analytically  !
 ! R6    R(3,4)                  1.4299         calculate D2E/DX2 analytically  !
 ! R7    R(3,8)                  1.0869         calculate D2E/DX2 analytically  !
 ! R8    R(4,6)                  1.4453         calculate D2E/DX2 analytically  !
 ! R9    R(4,11)                 1.4004         calculate D2E/DX2 analytically  !
 ! R10   R(5,6)                  1.4299         calculate D2E/DX2 analytically  !
 ! R11   R(5,10)                 1.0869         calculate D2E/DX2 analytically  !
 ! R12   R(6,14)                 1.4004         calculate D2E/DX2 analytically  !
 ! R13   R(11,12)                1.4004         calculate D2E/DX2 analytically  !
 ! R14   R(11,15)                1.0878         calculate D2E/DX2 analytically  !
 ! R15   R(12,13)                1.4453         calculate D2E/DX2 analytically  !
 ! R16   R(12,17)                1.4299         calculate D2E/DX2 analytically  !
 ! R17   R(13,14)                1.4004         calculate D2E/DX2 analytically  !
 ! R18   R(13,20)                1.4299         calculate D2E/DX2 analytically  !
 ! R19   R(14,16)                1.0878         calculate D2E/DX2 analytically  !
 ! R20   R(17,18)                1.3696         calculate D2E/DX2 analytically  !
 ! R21   R(17,21)                1.0869         calculate D2E/DX2 analytically  !
 ! R22   R(18,19)                1.4261         calculate D2E/DX2 analytically  !
 ! R23   R(18,22)                1.086          calculate D2E/DX2 analytically  !
 ! R24   R(19,20)                1.3696         calculate D2E/DX2 analytically  !
 ! R25   R(19,24)                1.086          calculate D2E/DX2 analytically  !
 ! R26   R(20,23)                1.0869         calculate D2E/DX2 analytically  !
 ! A1    A(2,1,3)              120.4405         calculate D2E/DX2 analytically  !
 ! A2    A(2,1,7)              119.4098         calculate D2E/DX2 analytically  !
 ! A3    A(3,1,7)              120.1497         calculate D2E/DX2 analytically  !
 ! A4    A(1,2,5)              120.4403         calculate D2E/DX2 analytically  !
 ! A5    A(1,2,9)              119.411          calculate D2E/DX2 analytically  !
 ! A6    A(5,2,9)              120.1488         calculate D2E/DX2 analytically  !
 ! A7    A(1,3,4)              120.9696         calculate D2E/DX2 analytically  !
 ! A8    A(1,3,8)              120.565          calculate D2E/DX2 analytically  !
 ! A9    A(4,3,8)              118.4655         calculate D2E/DX2 analytically  !
 ! A10   A(3,4,6)              118.5897         calculate D2E/DX2 analytically  !
 ! A11   A(3,4,11)             122.3107         calculate D2E/DX2 analytically  !
 ! A12   A(6,4,11)             119.0996         calculate D2E/DX2 analytically  !
 ! A13   A(2,5,6)              120.9693         calculate D2E/DX2 analytically  !
 ! A14   A(2,5,10)             120.5655         calculate D2E/DX2 analytically  !
 ! A15   A(6,5,10)             118.4652         calculate D2E/DX2 analytically  !
 ! A16   A(4,6,5)              118.5907         calculate D2E/DX2 analytically  !
 ! A17   A(4,6,14)             119.0983         calculate D2E/DX2 analytically  !
 ! A18   A(5,6,14)             122.311          calculate D2E/DX2 analytically  !
 ! A19   A(4,11,12)            121.8021         calculate D2E/DX2 analytically  !
 ! A20   A(4,11,15)            119.0987         calculate D2E/DX2 analytically  !
 ! A21   A(12,11,15)           119.0992         calculate D2E/DX2 analytically  !
 ! A22   A(11,12,13)           119.0983         calculate D2E/DX2 analytically  !
 ! A23   A(11,12,17)           122.311          calculate D2E/DX2 analytically  !
 ! A24   A(13,12,17)           118.5907         calculate D2E/DX2 analytically  !
 ! A25   A(12,13,14)           119.0996         calculate D2E/DX2 analytically  !
 ! A26   A(12,13,20)           118.5897         calculate D2E/DX2 analytically  !
 ! A27   A(14,13,20)           122.3107         calculate D2E/DX2 analytically  !
 ! A28   A(6,14,13)            121.8021         calculate D2E/DX2 analytically  !
 ! A29   A(6,14,16)            119.0992         calculate D2E/DX2 analytically  !
 ! A30   A(13,14,16)           119.0987         calculate D2E/DX2 analytically  !
 ! A31   A(12,17,18)           120.9693         calculate D2E/DX2 analytically  !
 ! A32   A(12,17,21)           118.4652         calculate D2E/DX2 analytically  !
 ! A33   A(18,17,21)           120.5655         calculate D2E/DX2 analytically  !
 ! A34   A(17,18,19)           120.4403         calculate D2E/DX2 analytically  !
 ! A35   A(17,18,22)           120.1488         calculate D2E/DX2 analytically  !
 ! A36   A(19,18,22)           119.411          calculate D2E/DX2 analytically  !
 ! A37   A(18,19,20)           120.4405         calculate D2E/DX2 analytically  !
 ! A38   A(18,19,24)           119.4097         calculate D2E/DX2 analytically  !
 ! A39   A(20,19,24)           120.1497         calculate D2E/DX2 analytically  !
 ! A40   A(13,20,19)           120.9696         calculate D2E/DX2 analytically  !
 ! A41   A(13,20,23)           118.4655         calculate D2E/DX2 analytically  !
 ! A42   A(19,20,23)           120.565          calculate D2E/DX2 analytically  !
 ! D1    D(3,1,2,5)              0.0            calculate D2E/DX2 analytically  !
 ! D2    D(3,1,2,9)            180.0            calculate D2E/DX2 analytically  !
 ! D3    D(7,1,2,5)            180.0            calculate D2E/DX2 analytically  !
 ! D4    D(7,1,2,9)              0.0            calculate D2E/DX2 analytically  !
 ! D5    D(2,1,3,4)              0.0            calculate D2E/DX2 analytically  !
 ! D6    D(2,1,3,8)            180.0            calculate D2E/DX2 analytically  !
 ! D7    D(7,1,3,4)            180.0            calculate D2E/DX2 analytically  !
 ! D8    D(7,1,3,8)              0.0            calculate D2E/DX2 analytically  !
 ! D9    D(1,2,5,6)              0.0            calculate D2E/DX2 analytically  !
 ! D10   D(1,2,5,10)           180.0            calculate D2E/DX2 analytically  !
 ! D11   D(9,2,5,6)            180.0            calculate D2E/DX2 analytically  !
 ! D12   D(9,2,5,10)             0.0            calculate D2E/DX2 analytically  !
 ! D13   D(1,3,4,6)              0.0            calculate D2E/DX2 analytically  !
 ! D14   D(1,3,4,11)           180.0            calculate D2E/DX2 analytically  !
 ! D15   D(8,3,4,6)            180.0            calculate D2E/DX2 analytically  !
 ! D16   D(8,3,4,11)             0.0            calculate D2E/DX2 analytically  !
 ! D17   D(3,4,6,5)              0.0            calculate D2E/DX2 analytically  !
 ! D18   D(3,4,6,14)           180.0            calculate D2E/DX2 analytically  !
 ! D19   D(11,4,6,5)           180.0            calculate D2E/DX2 analytically  !
 ! D20   D(11,4,6,14)            0.0            calculate D2E/DX2 analytically  !
 ! D21   D(3,4,11,12)          180.0            calculate D2E/DX2 analytically  !
 ! D22   D(3,4,11,15)            0.0            calculate D2E/DX2 analytically  !
 ! D23   D(6,4,11,12)            0.0            calculate D2E/DX2 analytically  !
 ! D24   D(6,4,11,15)          180.0            calculate D2E/DX2 analytically  !
 ! D25   D(2,5,6,4)              0.0            calculate D2E/DX2 analytically  !
 ! D26   D(2,5,6,14)           180.0            calculate D2E/DX2 analytically  !
 ! D27   D(10,5,6,4)           180.0            calculate D2E/DX2 analytically  !
 ! D28   D(10,5,6,14)            0.0            calculate D2E/DX2 analytically  !
 ! D29   D(4,6,14,13)            0.0            calculate D2E/DX2 analytically  !
 ! D30   D(4,6,14,16)          180.0            calculate D2E/DX2 analytically  !
 ! D31   D(5,6,14,13)          180.0            calculate D2E/DX2 analytically  !
 ! D32   D(5,6,14,16)            0.0            calculate D2E/DX2 analytically  !
 ! D33   D(4,11,12,13)           0.0            calculate D2E/DX2 analytically  !
 ! D34   D(4,11,12,17)         180.0            calculate D2E/DX2 analytically  !
 ! D35   D(15,11,12,13)        180.0            calculate D2E/DX2 analytically  !
 ! D36   D(15,11,12,17)          0.0            calculate D2E/DX2 analytically  !
 ! D37   D(11,12,13,14)          0.0            calculate D2E/DX2 analytically  !
 ! D38   D(11,12,13,20)        180.0            calculate D2E/DX2 analytically  !
 ! D39   D(17,12,13,14)        180.0            calculate D2E/DX2 analytically  !
 ! D40   D(17,12,13,20)          0.0            calculate D2E/DX2 analytically  !
 ! D41   D(11,12,17,18)        180.0            calculate D2E/DX2 analytically  !
 ! D42   D(11,12,17,21)          0.0            calculate D2E/DX2 analytically  !
 ! D43   D(13,12,17,18)          0.0            calculate D2E/DX2 analytically  !
 ! D44   D(13,12,17,21)        180.0            calculate D2E/DX2 analytically  !
 ! D45   D(12,13,14,6)           0.0            calculate D2E/DX2 analytically  !
 ! D46   D(12,13,14,16)        180.0            calculate D2E/DX2 analytically  !
 ! D47   D(20,13,14,6)         180.0            calculate D2E/DX2 analytically  !
 ! D48   D(20,13,14,16)          0.0            calculate D2E/DX2 analytically  !
 ! D49   D(12,13,20,19)          0.0            calculate D2E/DX2 analytically  !
 ! D50   D(12,13,20,23)        180.0            calculate D2E/DX2 analytically  !
 ! D51   D(14,13,20,19)        180.0            calculate D2E/DX2 analytically  !
 ! D52   D(14,13,20,23)          0.0            calculate D2E/DX2 analytically  !
 ! D53   D(12,17,18,19)          0.0            calculate D2E/DX2 analytically  !
 ! D54   D(12,17,18,22)        180.0            calculate D2E/DX2 analytically  !
 ! D55   D(21,17,18,19)        180.0            calculate D2E/DX2 analytically  !
 ! D56   D(21,17,18,22)          0.0            calculate D2E/DX2 analytically  !
 ! D57   D(17,18,19,20)          0.0            calculate D2E/DX2 analytically  !
 ! D58   D(17,18,19,24)        180.0            calculate D2E/DX2 analytically  !
 ! D59   D(22,18,19,20)       -180.0            calculate D2E/DX2 analytically  !
 ! D60   D(22,18,19,24)          0.0            calculate D2E/DX2 analytically  !
 ! D61   D(18,19,20,13)          0.0            calculate D2E/DX2 analytically  !
 ! D62   D(18,19,20,23)        180.0            calculate D2E/DX2 analytically  !
 ! D63   D(24,19,20,13)        180.0            calculate D2E/DX2 analytically  !
 ! D64   D(24,19,20,23)          0.0            calculate D2E/DX2 analytically  !
 --------------------------------------------------------------------------------
 Trust Radius=3.00D-01 FncErr=1.00D-07 GrdErr=1.00D-07
 Number of steps in this run=      2 maximum allowed number of steps=      2.
 GradGradGradGradGradGradGradGradGradGradGradGradGradGradGradGradGradGrad

                          Input orientation:                          
 ---------------------------------------------------------------------
 Center     Atomic      Atomic             Coordinates (Angstroms)
 Number     Number       Type             X           Y           Z
 ---------------------------------------------------------------------
      1          6           0       -4.079544    1.995636    0.000000
      2          6           0       -4.127718    0.570395    0.000000
      3          6           0       -2.875960    2.649255    0.000000
      4          6           0       -1.644228    1.922964    0.000000
      5          6           0       -2.971009   -0.162999    0.000000
      6          6           0       -1.693057    0.478475    0.000000
      7          1           0       -5.007034    2.560571    0.000000
      8          1           0       -2.836884    3.735473    0.000000
      9          1           0       -5.091227    0.069356    0.000000
     10          1           0       -3.005351   -1.249379    0.000000
     11          6           0       -0.398308    2.562279    0.000000
     12          6           0        0.801616    1.840312    0.000000
     13          6           0        0.752787    0.395823    0.000000
     14          6           0       -0.493134   -0.243492    0.000000
     15          1           0       -0.361576    3.649429    0.000000
     16          1           0       -0.529866   -1.330641    0.000000
     17          6           0        2.079567    2.481787    0.000000
     18          6           0        3.236276    1.748392    0.000000
     19          6           0        3.188102    0.323152    0.000000
     20          6           0        1.984518   -0.330468    0.000000
     21          1           0        2.113909    3.568166    0.000000
     22          1           0        4.199785    2.249431    0.000000
     23          1           0        1.945442   -1.416685    0.000000
     24          1           0        4.115592   -0.241783    0.000000
 ---------------------------------------------------------------------
                    Distance matrix (angstroms):
                    1          2          3          4          5
     1  C    0.000000
     2  C    1.426054   0.000000
     3  C    1.369611   2.426635   0.000000
     4  C    2.436400   2.827925   1.429916   0.000000
     5  C    2.426634   1.369614   2.813860   2.472163   0.000000
     6  C    2.827913   2.436395   2.472154   1.445314   1.429912
     7  H    1.085997   2.175775   2.132919   3.422719   3.400475
     8  H    2.138045   3.418182   1.086920   2.169704   3.900778
     9  H    2.175788   1.085997   3.400484   3.913778   2.132912
    10  H    3.418188   2.138056   3.900781   3.452016   1.086922
    11  C    3.724592   4.228014   2.479178   1.400372   3.747790
    12  C    4.883630   5.090287   3.765495   2.447240   4.271528
    13  C    5.090267   4.883626   4.271505   2.842154   3.765493
    14  C    4.228005   3.724595   3.747779   2.453273   2.479182
    15  H    4.069191   4.864594   2.706007   2.150786   4.619929
    16  H    4.864600   4.069211   4.619928   3.439150   2.706024
    17  C    6.178268   6.494906   4.958356   3.765493   5.701159
    18  C    7.319997   7.457619   6.178267   4.883626   6.494906
    19  C    7.457606   7.319997   6.494891   5.090267   6.178268
    20  C    6.494891   6.178267   5.701140   4.271505   4.958356
    21  H    6.389970   6.924199   5.073775   4.102474   6.306979
    22  H    8.283218   8.495085   7.087033   5.853126   7.565719
    23  H    6.924189   6.389973   6.306963   4.902957   5.073777
    24  H    8.495075   8.283223   7.565706   6.153183   7.087039
                    6          7          8          9         10
     6  C    0.000000
     7  H    3.913766   0.000000
     8  H    3.452010   2.467782   0.000000
     9  H    3.422709   2.492637   4.303774   0.000000
    10  H    2.169699   4.303772   4.987698   2.467781   0.000000
    11  C    2.453287   4.608727   2.706111   5.313959   4.617944
    12  C    2.842182   5.853135   4.102476   6.153201   4.902977
    13  C    2.447240   6.153183   4.902957   5.853126   4.102473
    14  C    1.400376   5.313949   4.617935   4.608724   2.706112
    15  H    3.439156   4.771362   2.476803   5.931823   5.566674
    16  H    2.150794   5.931826   5.566672   4.771374   2.476818
    17  C    4.271528   7.087039   5.073778   7.565719   6.306979
    18  C    5.090287   8.283224   6.389973   8.495085   6.924199
    19  C    4.883630   8.495075   6.924189   8.283218   6.389970
    20  C    3.765495   7.565706   6.306963   7.087032   5.073775
    21  H    4.902977   7.191876   4.953619   8.009723   7.029621
    22  H    6.153201   9.212075   7.191873   9.543356   8.009723
    23  H    4.102476   8.009712   7.029607   7.191872   4.953619
    24  H    5.853134   9.543348   8.009712   9.212075   7.191876
                   11         12         13         14         15
    11  C    0.000000
    12  C    1.400376   0.000000
    13  C    2.453273   1.445314   0.000000
    14  C    2.807373   2.453287   1.400372   0.000000
    15  H    1.087770   2.150794   3.439150   3.895143   0.000000
    16  H    3.895143   3.439155   2.150785   1.087770   4.982913
    17  C    2.479182   1.429912   2.472163   3.747790   2.706024
    18  C    3.724595   2.436395   2.827925   4.228014   4.069211
    19  C    4.228005   2.827913   2.436400   3.724592   4.864600
    20  C    3.747778   2.472154   1.429916   2.479178   4.619928
    21  H    2.706112   2.169699   3.452016   4.617944   2.476818
    22  H    4.608724   3.422709   3.913778   5.313959   4.771374
    23  H    4.617935   3.452010   2.169704   2.706111   5.566672
    24  H    5.313949   3.913766   3.422719   4.608726   5.931826
                   16         17         18         19         20
    16  H    0.000000
    17  C    4.619929   0.000000
    18  C    4.864594   1.369614   0.000000
    19  C    4.069191   2.426634   1.426055   0.000000
    20  C    2.706007   2.813860   2.426635   1.369611   0.000000
    21  H    5.566674   1.086922   2.138056   3.418188   3.900781
    22  H    5.931823   2.132912   1.085997   2.175788   3.400484
    23  H    2.476803   3.900778   3.418182   2.138045   1.086920
    24  H    4.771362   3.400475   2.175775   1.085997   2.132919
                   21         22         23         24
    21  H    0.000000
    22  H    2.467781   0.000000
    23  H    4.987698   4.303774   0.000000
    24  H    4.303772   2.492637   2.467782   0.000000
 Symmetry turned off by external request.
 Stoichiometry    C14H10
 Framework group  C1[X(C14H10)]
 Deg. of freedom    66
 Full point group                 C1      NOp   1
 Rotational constants (GHZ):      2.1449080      0.4511764      0.3727659
 Standard basis: 6-31G(d,p) (6D, 7F)
   260 basis functions,   462 primitive gaussians,   260 cartesian basis functions
    47 alpha electrons       47 beta electrons
       nuclear repulsion energy       765.3489036739 Hartrees.
 NAtoms=   24 NActive=   24 NUniq=   24 SFac= 1.00D+00 NAtFMM=   60 NAOKFM=F Big=F
 Integral buffers will be    131072 words long.
 Raffenetti 2 integral format.
 Two-electron integral symmetry is turned off.
 One-electron integrals computed using PRISM.
 NBasis=   260 RedAO= T EigKep=  2.23D-04  NBF=   260
 NBsUse=   260 1.00D-06 EigRej= -1.00D+00 NBFU=   260
 ExpMin= 1.61D-01 ExpMax= 3.05D+03 ExpMxC= 4.57D+02 IAcc=1 IRadAn=         1 AccDes= 0.00D+00
 Harris functional with IExCor=  402 and IRadAn=       1 diagonalized for initial guess.
 HarFok:  IExCor=  402 AccDes= 0.00D+00 IRadAn=         1 IDoV= 1 UseB2=F ITyADJ=14
 ICtDFT=  3500011 ScaDFX=  1.000000  1.000000  1.000000  1.000000
 FoFCou: FMM=F IPFlag=           0 FMFlag=      100000 FMFlg1=           0
         NFxFlg=           0 DoJE=T BraDBF=F KetDBF=T FulRan=T
         wScrn=  0.000000 ICntrl=     500 IOpCl=  0 I1Cent=   200000004 NGrid=           0
         NMat0=    1 NMatS0=      1 NMatT0=    0 NMatD0=    1 NMtDS0=    0 NMtDT0=    0
 Symmetry not used in FoFCou.
 Requested convergence on RMS density matrix=1.00D-08 within 128 cycles.
 Requested convergence on MAX density matrix=1.00D-06.
 Requested convergence on             energy=1.00D-06.
 No special actions if energy rises.
 Integral accuracy reduced to 1.0D-05 until final iterations.
 Initial convergence to 1.0D-05 achieved.  Increase integral accuracy.
 SCF Done:  E(RB3LYP) =  -539.546287243     A.U. after   13 cycles
            NFock= 13  Conv=0.79D-08     -V/T= 2.0098
 DoSCS=F DFT=T ScalE2(SS,OS)=  1.000000  1.000000
 Range of M.O.s used for correlation:     1   260
 NBasis=   260 NAE=    47 NBE=    47 NFC=     0 NFV=     0
 NROrb=    260 NOA=    47 NOB=    47 NVA=   213 NVB=   213

 **** Warning!!: The largest alpha MO coefficient is  0.12472110D+02

 Symmetrizing basis deriv contribution to polar:
 IMax=3 JMax=2 DiffMx= 0.00D+00
 G2DrvN: will do    25 centers at a time, making    1 passes.
 Calling FoFCou, ICntrl=  3107 FMM=F I1Cent=   0 AccDes= 0.00D+00.
 End of G2Drv F.D. properties file   721 does not exist.
 End of G2Drv F.D. properties file   722 does not exist.
 End of G2Drv F.D. properties file   788 does not exist.
          IDoAtm=111111111111111111111111
          Differentiating once with respect to electric field.
                with respect to dipole field.
          Differentiating once with respect to nuclear coordinates.
          There are    75 degrees of freedom in the 1st order CPHF.  IDoFFX=6 NUNeed=     3.
     72 vectors produced by pass  0 Test12= 1.33D-14 1.33D-09 XBig12= 5.18D+02 1.55D+01.
 AX will form    72 AO Fock derivatives at one time.
     72 vectors produced by pass  1 Test12= 1.33D-14 1.33D-09 XBig12= 5.91D+01 1.44D+00.
     72 vectors produced by pass  2 Test12= 1.33D-14 1.33D-09 XBig12= 7.05D-01 2.33D-01.
     72 vectors produced by pass  3 Test12= 1.33D-14 1.33D-09 XBig12= 1.44D-03 8.16D-03.
     72 vectors produced by pass  4 Test12= 1.33D-14 1.33D-09 XBig12= 1.76D-06 1.98D-04.
     65 vectors produced by pass  5 Test12= 1.33D-14 1.33D-09 XBig12= 1.32D-09 5.16D-06.
     10 vectors produced by pass  6 Test12= 1.33D-14 1.33D-09 XBig12= 9.90D-13 1.82D-07.
      3 vectors produced by pass  7 Test12= 1.33D-14 1.33D-09 XBig12= 1.11D-15 4.81D-09.
 InvSVY:  IOpt=1 It=  1 EMax= 1.07D-14
 Solved reduced A of dimension   438 with    75 vectors.
 Isotropic polarizability for W=    0.000000      155.39 Bohr**3.
 End of Minotr F.D. properties file   721 does not exist.
 End of Minotr F.D. properties file   722 does not exist.
 End of Minotr F.D. properties file   788 does not exist.

 **********************************************************************

            Population analysis using the SCF density.

 **********************************************************************

 Alpha  occ. eigenvalues --  -10.19770 -10.19769 -10.19732 -10.19730 -10.19089
 Alpha  occ. eigenvalues --  -10.19089 -10.19055 -10.19055 -10.18993 -10.18993
 Alpha  occ. eigenvalues --  -10.18984 -10.18984 -10.18980 -10.18980  -0.87749
 Alpha  occ. eigenvalues --   -0.84621  -0.79764  -0.78069  -0.74851  -0.73521
 Alpha  occ. eigenvalues --   -0.70026  -0.64169  -0.61265  -0.59709  -0.58815
 Alpha  occ. eigenvalues --   -0.53712  -0.51789  -0.50060  -0.46263  -0.45928
 Alpha  occ. eigenvalues --   -0.44896  -0.44136  -0.42148  -0.41168  -0.40304
 Alpha  occ. eigenvalues --   -0.39624  -0.38580  -0.37584  -0.35827  -0.34415
 Alpha  occ. eigenvalues --   -0.33306  -0.32381  -0.30064  -0.29567  -0.25427
 Alpha  occ. eigenvalues --   -0.23757  -0.19254
 Alpha virt. eigenvalues --   -0.06058  -0.01100   0.00794   0.04477   0.06732
 Alpha virt. eigenvalues --    0.09966   0.10274   0.11107   0.14165   0.14662
 Alpha virt. eigenvalues --    0.15548   0.16826   0.17150   0.17813   0.18136
 Alpha virt. eigenvalues --    0.21442   0.21515   0.23105   0.26702   0.27030
 Alpha virt. eigenvalues --    0.30380   0.30778   0.30959   0.32968   0.33849
 Alpha virt. eigenvalues --    0.34601   0.39163   0.46388   0.48819   0.49337
 Alpha virt. eigenvalues --    0.49657   0.50310   0.50693   0.52893   0.54525
 Alpha virt. eigenvalues --    0.55283   0.55422   0.55498   0.56648   0.57355
 Alpha virt. eigenvalues --    0.57400   0.58184   0.59252   0.60079   0.60289
 Alpha virt. eigenvalues --    0.61451   0.61806   0.62210   0.62881   0.63091
 Alpha virt. eigenvalues --    0.63283   0.63814   0.64091   0.65424   0.68494
 Alpha virt. eigenvalues --    0.70679   0.73649   0.74862   0.79195   0.80576
 Alpha virt. eigenvalues --    0.81773   0.81785   0.82140   0.82201   0.83106
 Alpha virt. eigenvalues --    0.84158   0.84427   0.85149   0.88254   0.88351
 Alpha virt. eigenvalues --    0.91577   0.92721   0.94380   0.95622   0.95985
 Alpha virt. eigenvalues --    0.98804   1.00919   1.03199   1.03758   1.05334
 Alpha virt. eigenvalues --    1.06908   1.11136   1.13049   1.16223   1.17012
 Alpha virt. eigenvalues --    1.18629   1.22712   1.23099   1.23654   1.26739
 Alpha virt. eigenvalues --    1.29016   1.32427   1.33710   1.35328   1.35563
 Alpha virt. eigenvalues --    1.35631   1.37533   1.38802   1.41269   1.41475
 Alpha virt. eigenvalues --    1.42164   1.43665   1.45212   1.45579   1.49625
 Alpha virt. eigenvalues --    1.53208   1.54042   1.54494   1.72347   1.72997
 Alpha virt. eigenvalues --    1.74005   1.76469   1.81383   1.81793   1.83917
 Alpha virt. eigenvalues --    1.84620   1.85188   1.86482   1.87272   1.88429
 Alpha virt. eigenvalues --    1.89884   1.90670   1.92648   1.93041   1.93405
 Alpha virt. eigenvalues --    1.95117   1.95316   1.95370   1.99219   1.99764
 Alpha virt. eigenvalues --    2.01227   2.04411   2.05548   2.08866   2.09508
 Alpha virt. eigenvalues --    2.11397   2.20455   2.22807   2.23443   2.23501
 Alpha virt. eigenvalues --    2.28662   2.29429   2.29596   2.31129   2.31940
 Alpha virt. eigenvalues --    2.31960   2.32866   2.37677   2.38135   2.38934
 Alpha virt. eigenvalues --    2.41379   2.43569   2.43892   2.44509   2.46021
 Alpha virt. eigenvalues --    2.46336   2.47468   2.52024   2.52869   2.54719
 Alpha virt. eigenvalues --    2.55582   2.57584   2.58422   2.59113   2.59165
 Alpha virt. eigenvalues --    2.61101   2.61168   2.63667   2.64298   2.65808
 Alpha virt. eigenvalues --    2.69662   2.72061   2.74407   2.76131   2.76318
 Alpha virt. eigenvalues --    2.77744   2.82418   2.86732   2.89213   2.91788
 Alpha virt. eigenvalues --    2.98863   3.04587   3.10070   3.10705   3.15265
 Alpha virt. eigenvalues --    3.18867   3.20891   3.24009   3.24198   3.29602
 Alpha virt. eigenvalues --    3.30602   3.32167   3.42036   3.44453   3.47003
 Alpha virt. eigenvalues --    3.48833   3.65161   3.86075   3.86916   4.10019
 Alpha virt. eigenvalues --    4.10950   4.14120   4.14910   4.15173   4.16545
 Alpha virt. eigenvalues --    4.21271   4.30599   4.39948   4.42375   4.52662
 Alpha virt. eigenvalues --    4.54787   4.77000   4.96196
          Condensed to atoms (all electrons):
               1          2          3          4          5          6
     1  C    4.863432   0.477293   0.534090  -0.010240  -0.025704  -0.036257
     2  C    0.477293   4.863375  -0.025703  -0.036250   0.534067  -0.010214
     3  C    0.534090  -0.025703   5.002756   0.438468  -0.063448  -0.031790
     4  C   -0.010240  -0.036250   0.438468   4.770514  -0.031820   0.466418
     5  C   -0.025704   0.534067  -0.063448  -0.031820   5.002825   0.438382
     6  C   -0.036257  -0.010214  -0.031790   0.466418   0.438382   4.770538
     7  H    0.365664  -0.040274  -0.034000   0.002918   0.004191   0.001011
     8  H   -0.043334   0.004530   0.363899  -0.039698   0.000544   0.004582
     9  H   -0.040277   0.365652   0.004191   0.001011  -0.034009   0.002917
    10  H    0.004530  -0.043340   0.000544   0.004583   0.363895  -0.039689
    11  C    0.007626  -0.000571  -0.079662   0.400232   0.014251  -0.022294
    12  C   -0.000334   0.000030   0.007330   0.006379  -0.000136  -0.032678
    13  C    0.000030  -0.000334  -0.000136  -0.032692   0.007330   0.006379
    14  C   -0.000571   0.007625   0.014244  -0.022256  -0.079655   0.400331
    15  H    0.000123   0.000023  -0.008189  -0.039812  -0.000210   0.004255
    16  H    0.000023   0.000123  -0.000209   0.004254  -0.008182  -0.039825
    17  C    0.000002   0.000000  -0.000200   0.007330  -0.000005  -0.000136
    18  C    0.000000   0.000000   0.000002  -0.000334   0.000000   0.000030
    19  C    0.000000   0.000000   0.000000   0.000030   0.000002  -0.000334
    20  C    0.000000   0.000002  -0.000005  -0.000136  -0.000200   0.007330
    21  H    0.000000   0.000000  -0.000003   0.000144   0.000000   0.000017
    22  H    0.000000   0.000000   0.000000   0.000004   0.000000  -0.000001
    23  H    0.000000   0.000000   0.000000   0.000017  -0.000003   0.000144
    24  H    0.000000   0.000000   0.000000  -0.000001   0.000000   0.000004
               7          8          9         10         11         12
     1  C    0.365664  -0.043334  -0.040277   0.004530   0.007626  -0.000334
     2  C   -0.040274   0.004530   0.365652  -0.043340  -0.000571   0.000030
     3  C   -0.034000   0.363899   0.004191   0.000544  -0.079662   0.007330
     4  C    0.002918  -0.039698   0.001011   0.004583   0.400232   0.006379
     5  C    0.004191   0.000544  -0.034009   0.363895   0.014251  -0.000136
     6  C    0.001011   0.004582   0.002917  -0.039689  -0.022294  -0.032678
     7  H    0.626287  -0.006170  -0.005247  -0.000192  -0.000207   0.000004
     8  H   -0.006170   0.633942  -0.000193   0.000019  -0.008700   0.000144
     9  H   -0.005247  -0.000193   0.626325  -0.006168   0.000010  -0.000001
    10  H   -0.000192   0.000019  -0.006168   0.633949  -0.000195   0.000017
    11  C   -0.000207  -0.008700   0.000010  -0.000195   5.337810   0.400331
    12  C    0.000004   0.000144  -0.000001   0.000017   0.400331   4.770538
    13  C   -0.000001   0.000017   0.000004   0.000144  -0.022256   0.466418
    14  C    0.000010  -0.000195  -0.000207  -0.008708  -0.107681  -0.022294
    15  H   -0.000013   0.006335   0.000000   0.000002   0.357123  -0.039825
    16  H    0.000000   0.000002  -0.000013   0.006335   0.000691   0.004255
    17  C    0.000000  -0.000003   0.000000   0.000000  -0.079655   0.438382
    18  C    0.000000   0.000000   0.000000   0.000000   0.007625  -0.010214
    19  C    0.000000   0.000000   0.000000   0.000000  -0.000571  -0.036257
    20  C    0.000000   0.000000   0.000000  -0.000003   0.014244  -0.031790
    21  H    0.000000   0.000002   0.000000   0.000000  -0.008708  -0.039689
    22  H    0.000000   0.000000   0.000000   0.000000  -0.000207   0.002917
    23  H    0.000000   0.000000   0.000000   0.000002  -0.000195   0.004582
    24  H    0.000000   0.000000   0.000000   0.000000   0.000010   0.001011
              13         14         15         16         17         18
     1  C    0.000030  -0.000571   0.000123   0.000023   0.000002   0.000000
     2  C   -0.000334   0.007625   0.000023   0.000123   0.000000   0.000000
     3  C   -0.000136   0.014244  -0.008189  -0.000209  -0.000200   0.000002
     4  C   -0.032692  -0.022256  -0.039812   0.004254   0.007330  -0.000334
     5  C    0.007330  -0.079655  -0.000210  -0.008182  -0.000005   0.000000
     6  C    0.006379   0.400331   0.004255  -0.039825  -0.000136   0.000030
     7  H   -0.000001   0.000010  -0.000013   0.000000   0.000000   0.000000
     8  H    0.000017  -0.000195   0.006335   0.000002  -0.000003   0.000000
     9  H    0.000004  -0.000207   0.000000  -0.000013   0.000000   0.000000
    10  H    0.000144  -0.008708   0.000002   0.006335   0.000000   0.000000
    11  C   -0.022256  -0.107681   0.357123   0.000691  -0.079655   0.007625
    12  C    0.466418  -0.022294  -0.039825   0.004255   0.438382  -0.010214
    13  C    4.770514   0.400232   0.004254  -0.039812  -0.031820  -0.036250
    14  C    0.400232   5.337810   0.000691   0.357123   0.014251  -0.000571
    15  H    0.004254   0.000691   0.634048   0.000025  -0.008182   0.000123
    16  H   -0.039812   0.357123   0.000025   0.634048  -0.000210   0.000023
    17  C   -0.031820   0.014251  -0.008182  -0.000210   5.002825   0.534067
    18  C   -0.036250  -0.000571   0.000123   0.000023   0.534067   4.863375
    19  C   -0.010240   0.007626   0.000023   0.000123  -0.025704   0.477293
    20  C    0.438468  -0.079662  -0.000209  -0.008189  -0.063448  -0.025703
    21  H    0.004583  -0.000195   0.006335   0.000002   0.363895  -0.043340
    22  H    0.001011   0.000010  -0.000013   0.000000  -0.034009   0.365652
    23  H   -0.039698  -0.008700   0.000002   0.006335   0.000544   0.004530
    24  H    0.002918  -0.000207   0.000000  -0.000013   0.004191  -0.040274
              19         20         21         22         23         24
     1  C    0.000000   0.000000   0.000000   0.000000   0.000000   0.000000
     2  C    0.000000   0.000002   0.000000   0.000000   0.000000   0.000000
     3  C    0.000000  -0.000005  -0.000003   0.000000   0.000000   0.000000
     4  C    0.000030  -0.000136   0.000144   0.000004   0.000017  -0.000001
     5  C    0.000002  -0.000200   0.000000   0.000000  -0.000003   0.000000
     6  C   -0.000334   0.007330   0.000017  -0.000001   0.000144   0.000004
     7  H    0.000000   0.000000   0.000000   0.000000   0.000000   0.000000
     8  H    0.000000   0.000000   0.000002   0.000000   0.000000   0.000000
     9  H    0.000000   0.000000   0.000000   0.000000   0.000000   0.000000
    10  H    0.000000  -0.000003   0.000000   0.000000   0.000002   0.000000
    11  C   -0.000571   0.014244  -0.008708  -0.000207  -0.000195   0.000010
    12  C   -0.036257  -0.031790  -0.039689   0.002917   0.004582   0.001011
    13  C   -0.010240   0.438468   0.004583   0.001011  -0.039698   0.002918
    14  C    0.007626  -0.079662  -0.000195   0.000010  -0.008700  -0.000207
    15  H    0.000023  -0.000209   0.006335  -0.000013   0.000002   0.000000
    16  H    0.000123  -0.008189   0.000002   0.000000   0.006335  -0.000013
    17  C   -0.025704  -0.063448   0.363895  -0.034009   0.000544   0.004191
    18  C    0.477293  -0.025703  -0.043340   0.365652   0.004530  -0.040274
    19  C    4.863432   0.534090   0.004530  -0.040277  -0.043334   0.365664
    20  C    0.534090   5.002755   0.000544   0.004191   0.363899  -0.034000
    21  H    0.004530   0.000544   0.633949  -0.006168   0.000019  -0.000192
    22  H   -0.040277   0.004191  -0.006168   0.626325  -0.000193  -0.005247
    23  H   -0.043334   0.363899   0.000019  -0.000193   0.633942  -0.006170
    24  H    0.365664  -0.034000  -0.000192  -0.005247  -0.006170   0.626287
 Mulliken charges:
               1
     1  C   -0.096097
     2  C   -0.096035
     3  C   -0.122182
     4  C    0.110936
     5  C   -0.122114
     6  C    0.110880
     7  H    0.086019
     8  H    0.084275
     9  H    0.086004
    10  H    0.084274
    11  C   -0.209052
    12  C    0.110880
    13  C    0.110936
    14  C   -0.209052
    15  H    0.083091
    16  H    0.083091
    17  C   -0.122114
    18  C   -0.096035
    19  C   -0.096097
    20  C   -0.122182
    21  H    0.084274
    22  H    0.086004
    23  H    0.084275
    24  H    0.086019
 Sum of Mulliken charges =   0.00000
 Mulliken charges with hydrogens summed into heavy atoms:
               1
     1  C   -0.010078
     2  C   -0.010031
     3  C   -0.037907
     4  C    0.110936
     5  C   -0.037841
     6  C    0.110880
    11  C   -0.125960
    12  C    0.110880
    13  C    0.110936
    14  C   -0.125960
    17  C   -0.037841
    18  C   -0.010031
    19  C   -0.010078
    20  C   -0.037907
 APT charges:
               1
     1  C   -0.025492
     2  C   -0.025775
     3  C    0.001869
     4  C   -0.008747
     5  C    0.001861
     6  C   -0.008732
     7  H    0.010575
     8  H    0.017190
     9  H    0.010571
    10  H    0.017179
    11  C   -0.007332
    12  C   -0.008732
    13  C   -0.008747
    14  C   -0.007332
    15  H    0.016833
    16  H    0.016833
    17  C    0.001861
    18  C   -0.025775
    19  C   -0.025492
    20  C    0.001869
    21  H    0.017179
    22  H    0.010571
    23  H    0.017190
    24  H    0.010575
 Sum of APT charges =   0.00000
 APT charges with hydrogens summed into heavy atoms:
               1
     1  C   -0.014917
     2  C   -0.015204
     3  C    0.019059
     4  C   -0.008747
     5  C    0.019040
     6  C   -0.008732
    11  C    0.009501
    12  C   -0.008732
    13  C   -0.008747
    14  C    0.009501
    17  C    0.019040
    18  C   -0.015204
    19  C   -0.014917
    20  C    0.019059
 Electronic spatial extent (au):  <R**2>=           3377.8088
 Charge=              0.0000 electrons
 Dipole moment (field-independent basis, Debye):
    X=              0.0000    Y=              0.0000    Z=              0.0000  Tot=              0.0000
 Quadrupole moment (field-independent basis, Debye-Ang):
   XX=            -69.9345   YY=            -70.7205   ZZ=            -85.6820
   XY=             -0.0268   XZ=              0.0000   YZ=              0.0000
 Traceless Quadrupole moment (field-independent basis, Debye-Ang):
   XX=              5.5112   YY=              4.7251   ZZ=            -10.2363
   XY=             -0.0268   XZ=              0.0000   YZ=              0.0000
 Octapole moment (field-independent basis, Debye-Ang**2):
  XXX=             93.5137  YYY=           -245.9788  ZZZ=              0.0000  XYY=             31.4595
  XXY=            -81.0577  XXZ=              0.0000  XZZ=             38.1903  YZZ=            -99.3392
  YYZ=              0.0000  XYZ=              0.0000
 Hexadecapole moment (field-independent basis, Debye-Ang**3):
 XXXX=          -2887.4330 YYYY=          -1263.9900 ZZZZ=            -88.8216 XXXY=            142.9360
 XXXZ=              0.0000 YYYX=            146.3910 YYYZ=              0.0000 ZZZX=              0.0000
 ZZZY=              0.0000 XXYY=           -702.3267 XXZZ=           -604.7310 YYZZ=           -269.3555
 XXYZ=              0.0000 YYXZ=              0.0000 ZZXY=             58.9449
 N-N= 7.653489036739D+02 E-N=-2.779662401164D+03  KE= 5.342884395535D+02
  Exact polarizability: 269.687  -3.998 151.505   0.000   0.000  44.964
 Approx polarizability: 457.869  -5.681 289.904   0.000   0.000  72.464
 Calling FoFJK, ICntrl=    100127 FMM=F ISym2X=0 I1Cent= 0 IOpClX= 0 NMat=1 NMatS=1 NMatT=0.
 Full mass-weighted force constant matrix:
 Low frequencies ---   -0.7659   -0.0010   -0.0002    0.0009    8.6464    8.9052
 Low frequencies ---   93.2641  123.7178  235.3962
 Diagonal vibrational polarizability:
        1.0572985       1.3354162       8.7026163
 Harmonic frequencies (cm**-1), IR intensities (KM/Mole), Raman scattering
 activities (A**4/AMU), depolarization ratios for plane and unpolarized
 incident light, reduced masses (AMU), force constants (mDyne/A),
 and normal coordinates:
                      1                      2                      3
                      A                      A                      A
 Frequencies --     93.2641               123.7178               235.3962
 Red. masses --      4.9264                 3.6927                 4.4613
 Frc consts  --      0.0252                 0.0333                 0.1457
 IR Inten    --      0.8163                 0.0000                 1.2897
  Atom  AN      X      Y      Z        X      Y      Z        X      Y      Z
     1   6     0.00   0.00   0.21     0.00   0.00   0.13     0.06   0.17   0.00
     2   6     0.00   0.00   0.22     0.00   0.00  -0.13    -0.04   0.17   0.00
     3   6     0.00   0.00   0.01     0.00   0.00   0.20     0.12   0.02   0.00
     4   6     0.00   0.00  -0.15     0.00   0.00   0.06     0.02  -0.14   0.00
     5   6     0.00   0.00   0.01     0.00   0.00  -0.20    -0.12   0.03   0.00
     6   6     0.00   0.00  -0.15     0.00   0.00  -0.06    -0.03  -0.13   0.00
     7   1     0.00   0.00   0.37     0.00   0.00   0.24     0.11   0.25   0.00
     8   1     0.00   0.00   0.01     0.00   0.00   0.36     0.29   0.01   0.00
     9   1     0.00   0.00   0.38     0.00   0.00  -0.24    -0.09   0.26   0.00
    10   1     0.00   0.00   0.01     0.00   0.00  -0.36    -0.29   0.03   0.00
    11   6     0.00   0.00  -0.20     0.00   0.00   0.00    -0.01  -0.15   0.00
    12   6     0.00   0.00  -0.15     0.00   0.00  -0.06    -0.03  -0.13   0.00
    13   6     0.00   0.00  -0.15     0.00   0.00   0.06     0.02  -0.14   0.00
    14   6     0.00   0.00  -0.20     0.00   0.00   0.00    -0.01  -0.15   0.00
    15   1     0.00   0.00  -0.20     0.00   0.00   0.00     0.00  -0.16   0.00
    16   1     0.00   0.00  -0.20     0.00   0.00   0.00     0.00  -0.16   0.00
    17   6     0.00   0.00   0.01     0.00   0.00  -0.20    -0.12   0.03   0.00
    18   6     0.00   0.00   0.22     0.00   0.00  -0.13    -0.04   0.17   0.00
    19   6     0.00   0.00   0.21     0.00   0.00   0.13     0.06   0.17   0.00
    20   6     0.00   0.00   0.01     0.00   0.00   0.20     0.12   0.02   0.00
    21   1     0.00   0.00   0.01     0.00   0.00  -0.36    -0.29   0.03   0.00
    22   1     0.00   0.00   0.38     0.00   0.00  -0.24    -0.09   0.26   0.00
    23   1     0.00   0.00   0.01     0.00   0.00   0.36     0.29   0.01   0.00
    24   1     0.00   0.00   0.37     0.00   0.00   0.24     0.11   0.25   0.00
                      4                      5                      6
                      A                      A                      A
 Frequencies --    238.9254               272.9633               388.4489
 Red. masses --      4.8209                 3.7222                 3.3694
 Frc consts  --      0.1621                 0.1634                 0.2995
 IR Inten    --      0.0000                 0.0000                 0.0692
  Atom  AN      X      Y      Z        X      Y      Z        X      Y      Z
     1   6     0.00   0.00  -0.15     0.00   0.00  -0.13     0.00   0.00   0.08
     2   6     0.00   0.00  -0.15     0.00   0.00   0.13     0.00   0.00   0.08
     3   6     0.00   0.00   0.16     0.00   0.00  -0.08     0.00   0.00  -0.17
     4   6     0.00   0.00   0.20     0.00   0.00   0.08     0.00   0.00  -0.01
     5   6     0.00   0.00   0.16     0.00   0.00   0.08     0.00   0.00  -0.17
     6   6     0.00   0.00   0.20     0.00   0.00  -0.08     0.00   0.00  -0.01
     7   1     0.00   0.00  -0.35     0.00   0.00  -0.29     0.00   0.00   0.15
     8   1     0.00   0.00   0.20     0.00   0.00  -0.18     0.00   0.00  -0.33
     9   1     0.00   0.00  -0.35     0.00   0.00   0.28     0.00   0.00   0.15
    10   1     0.00   0.00   0.20     0.00   0.00   0.19     0.00   0.00  -0.33
    11   6     0.00   0.00   0.00     0.00   0.00   0.25     0.00   0.00   0.19
    12   6     0.00   0.00  -0.20     0.00   0.00   0.08     0.00   0.00  -0.01
    13   6     0.00   0.00  -0.20     0.00   0.00  -0.08     0.00   0.00  -0.01
    14   6     0.00   0.00   0.00     0.00   0.00  -0.25     0.00   0.00   0.19
    15   1     0.00   0.00   0.00     0.00   0.00   0.38     0.00   0.00   0.36
    16   1     0.00   0.00   0.00     0.00   0.00  -0.38     0.00   0.00   0.36
    17   6     0.00   0.00  -0.16     0.00   0.00  -0.08     0.00   0.00  -0.17
    18   6     0.00   0.00   0.15     0.00   0.00  -0.13     0.00   0.00   0.08
    19   6     0.00   0.00   0.15     0.00   0.00   0.13     0.00   0.00   0.08
    20   6     0.00   0.00  -0.16     0.00   0.00   0.08     0.00   0.00  -0.17
    21   1     0.00   0.00  -0.20     0.00   0.00  -0.19     0.00   0.00  -0.33
    22   1     0.00   0.00   0.35     0.00   0.00  -0.28     0.00   0.00   0.15
    23   1     0.00   0.00  -0.20     0.00   0.00   0.18     0.00   0.00  -0.33
    24   1     0.00   0.00   0.35     0.00   0.00   0.29     0.00   0.00   0.15
                      7                      8                      9
                      A                      A                      A
 Frequencies --    394.1686               398.8969               484.6399
 Red. masses --      4.6207                 6.7019                 2.4782
 Frc consts  --      0.4230                 0.6283                 0.3429
 IR Inten    --      0.0000                 0.0000                12.6639
  Atom  AN      X      Y      Z        X      Y      Z        X      Y      Z
     1   6    -0.08  -0.03   0.00     0.26  -0.01   0.00     0.00   0.00   0.03
     2   6     0.08  -0.04   0.00     0.26  -0.01   0.00     0.00   0.00   0.03
     3   6    -0.14   0.11   0.00     0.21   0.04   0.00     0.00   0.00  -0.07
     4   6    -0.06   0.19   0.00     0.11  -0.01   0.00     0.00   0.00   0.14
     5   6     0.15   0.10   0.00     0.21  -0.05   0.00     0.00   0.00  -0.07
     6   6     0.07   0.19   0.00     0.11   0.00   0.00     0.00   0.00   0.14
     7   1    -0.15  -0.15   0.00     0.24  -0.05   0.00     0.00   0.00  -0.06
     8   1    -0.27   0.12   0.00     0.24   0.03   0.00     0.00   0.00  -0.29
     9   1     0.14  -0.16   0.00     0.24   0.04   0.00     0.00   0.00  -0.06
    10   1     0.28   0.10   0.00     0.24  -0.05   0.00     0.00   0.00  -0.29
    11   6     0.02   0.00   0.00     0.00   0.06   0.00     0.00   0.00  -0.12
    12   6    -0.07  -0.19   0.00    -0.11   0.00   0.00     0.00   0.00   0.14
    13   6     0.06  -0.19   0.00    -0.11   0.01   0.00     0.00   0.00   0.14
    14   6    -0.02   0.00   0.00     0.00  -0.06   0.00     0.00   0.00  -0.12
    15   1     0.27  -0.01   0.00     0.00   0.06   0.00     0.00   0.00  -0.51
    16   1    -0.27   0.01   0.00     0.00  -0.06   0.00     0.00   0.00  -0.51
    17   6    -0.15  -0.10   0.00    -0.21   0.05   0.00     0.00   0.00  -0.07
    18   6    -0.08   0.04   0.00    -0.26   0.01   0.00     0.00   0.00   0.03
    19   6     0.08   0.03   0.00    -0.26   0.01   0.00     0.00   0.00   0.03
    20   6     0.14  -0.11   0.00    -0.21  -0.04   0.00     0.00   0.00  -0.07
    21   1    -0.28  -0.10   0.00    -0.24   0.05   0.00     0.00   0.00  -0.29
    22   1    -0.14   0.16   0.00    -0.24  -0.04   0.00     0.00   0.00  -0.06
    23   1     0.27  -0.12   0.00    -0.24  -0.03   0.00     0.00   0.00  -0.29
    24   1     0.15   0.15   0.00    -0.24   0.05   0.00     0.00   0.00  -0.06
                     10                     11                     12
                      A                      A                      A
 Frequencies --    488.2986               507.9471               534.1140
 Red. masses --      2.8707                 3.6132                 6.2830
 Frc consts  --      0.4033                 0.5493                 1.0560
 IR Inten    --      0.0000                 0.0000                 0.0000
  Atom  AN      X      Y      Z        X      Y      Z        X      Y      Z
     1   6     0.00   0.00   0.06     0.00   0.00   0.17     0.12  -0.16   0.00
     2   6     0.00   0.00   0.06     0.00   0.00  -0.17    -0.13  -0.15   0.00
     3   6     0.00   0.00  -0.12     0.00   0.00  -0.10     0.09  -0.04   0.00
     4   6     0.00   0.00   0.16     0.00   0.00  -0.15     0.15   0.12   0.00
     5   6     0.00   0.00  -0.12     0.00   0.00   0.10    -0.10  -0.04   0.00
     6   6     0.00   0.00   0.16     0.00   0.00   0.15    -0.15   0.13   0.00
     7   1     0.00   0.00  -0.07     0.00   0.00   0.44     0.17  -0.07   0.00
     8   1     0.00   0.00  -0.45     0.00   0.00  -0.04    -0.12  -0.04   0.00
     9   1     0.00   0.00  -0.07     0.00   0.00  -0.44    -0.18  -0.06   0.00
    10   1     0.00   0.00  -0.45     0.00   0.00   0.04     0.12  -0.04   0.00
    11   6     0.00   0.00   0.00     0.00   0.00   0.00     0.25  -0.01   0.00
    12   6     0.00   0.00  -0.16     0.00   0.00   0.15     0.15  -0.13   0.00
    13   6     0.00   0.00  -0.16     0.00   0.00  -0.15    -0.15  -0.12   0.00
    14   6     0.00   0.00   0.00     0.00   0.00   0.00    -0.25   0.01   0.00
    15   1     0.00   0.00   0.00     0.00   0.00   0.00     0.40  -0.01   0.00
    16   1     0.00   0.00   0.00     0.00   0.00   0.00    -0.40   0.01   0.00
    17   6     0.00   0.00   0.12     0.00   0.00   0.10     0.10   0.04   0.00
    18   6     0.00   0.00  -0.06     0.00   0.00  -0.17     0.13   0.15   0.00
    19   6     0.00   0.00  -0.06     0.00   0.00   0.17    -0.12   0.16   0.00
    20   6     0.00   0.00   0.12     0.00   0.00  -0.10    -0.09   0.04   0.00
    21   1     0.00   0.00   0.45     0.00   0.00   0.04    -0.12   0.04   0.00
    22   1     0.00   0.00   0.07     0.00   0.00  -0.44     0.18   0.06   0.00
    23   1     0.00   0.00   0.45     0.00   0.00  -0.04     0.12   0.04   0.00
    24   1     0.00   0.00   0.07     0.00   0.00   0.44    -0.17   0.07   0.00
                     13                     14                     15
                      A                      A                      A
 Frequencies --    590.6755               617.3135               641.2709
 Red. masses --      3.5052                 6.7860                 6.6596
 Frc consts  --      0.7205                 1.5236                 1.6135
 IR Inten    --      0.0000                 8.2205                 0.0000
  Atom  AN      X      Y      Z        X      Y      Z        X      Y      Z
     1   6     0.00   0.00  -0.16    -0.19  -0.02   0.00    -0.09  -0.02   0.00
     2   6     0.00   0.00   0.16    -0.19   0.03   0.00    -0.09   0.03   0.00
     3   6     0.00   0.00   0.14    -0.02  -0.26   0.00     0.03  -0.24   0.00
     4   6     0.00   0.00   0.06     0.13  -0.04   0.00     0.15   0.00   0.00
     5   6     0.00   0.00  -0.14    -0.01   0.26   0.00     0.05   0.24   0.00
     6   6     0.00   0.00  -0.06     0.13   0.04   0.00     0.15  -0.01   0.00
     7   1     0.00   0.00  -0.38    -0.07   0.19   0.00     0.02   0.16   0.00
     8   1     0.00   0.00   0.14    -0.02  -0.25   0.00     0.04  -0.24   0.00
     9   1     0.00   0.00   0.38    -0.08  -0.18   0.00     0.01  -0.16   0.00
    10   1     0.00   0.00  -0.14     0.00   0.25   0.00     0.06   0.24   0.00
    11   6     0.00   0.00  -0.13     0.15   0.00   0.00     0.01   0.27   0.00
    12   6     0.00   0.00   0.06     0.13   0.04   0.00    -0.15   0.01   0.00
    13   6     0.00   0.00  -0.06     0.13  -0.04   0.00    -0.15   0.00   0.00
    14   6     0.00   0.00   0.13     0.15   0.00   0.00    -0.01  -0.27   0.00
    15   1     0.00   0.00  -0.24     0.17  -0.01   0.00     0.01   0.27   0.00
    16   1     0.00   0.00   0.24     0.17  -0.01   0.00    -0.01  -0.27   0.00
    17   6     0.00   0.00   0.14    -0.01   0.26   0.00    -0.05  -0.24   0.00
    18   6     0.00   0.00  -0.16    -0.19   0.03   0.00     0.09  -0.03   0.00
    19   6     0.00   0.00   0.16    -0.19  -0.02   0.00     0.09   0.02   0.00
    20   6     0.00   0.00  -0.14    -0.02  -0.26   0.00    -0.03   0.24   0.00
    21   1     0.00   0.00   0.14     0.00   0.25   0.00    -0.06  -0.24   0.00
    22   1     0.00   0.00  -0.38    -0.08  -0.18   0.00    -0.01   0.16   0.00
    23   1     0.00   0.00  -0.14    -0.02  -0.25   0.00    -0.04   0.24   0.00
    24   1     0.00   0.00   0.38    -0.07   0.19   0.00    -0.02  -0.16   0.00
                     16                     17                     18
                      A                      A                      A
 Frequencies --    661.0212               746.1745               758.5245
 Red. masses --      6.0674                 1.1891                 4.0029
 Frc consts  --      1.5620                 0.3901                 1.3569
 IR Inten    --      0.8091                58.3231                 0.0000
  Atom  AN      X      Y      Z        X      Y      Z        X      Y      Z
     1   6     0.20  -0.10   0.00     0.00   0.00   0.03     0.00   0.00  -0.13
     2   6    -0.20  -0.09   0.00     0.00   0.00   0.03     0.00   0.00   0.13
     3   6     0.17  -0.07   0.00     0.00   0.00   0.05     0.00   0.00   0.08
     4   6     0.11   0.05   0.00     0.00   0.00  -0.02     0.00   0.00  -0.21
     5   6    -0.18  -0.06   0.00     0.00   0.00   0.05     0.00   0.00  -0.08
     6   6    -0.10   0.06   0.00     0.00   0.00  -0.02     0.00   0.00   0.21
     7   1     0.32   0.10   0.00     0.00   0.00  -0.36     0.00   0.00  -0.02
     8   1     0.06  -0.07   0.00     0.00   0.00  -0.29     0.00   0.00   0.43
     9   1    -0.31   0.12   0.00     0.00   0.00  -0.36     0.00   0.00   0.02
    10   1    -0.06  -0.07   0.00     0.00   0.00  -0.29     0.00   0.00  -0.43
    11   6     0.01   0.18   0.00     0.00   0.00  -0.03     0.00   0.00   0.00
    12   6    -0.10   0.06   0.00     0.00   0.00  -0.02     0.00   0.00   0.21
    13   6     0.11   0.05   0.00     0.00   0.00  -0.02     0.00   0.00  -0.21
    14   6     0.01   0.18   0.00     0.00   0.00  -0.03     0.00   0.00   0.00
    15   1     0.01   0.18   0.00     0.00   0.00   0.25     0.00   0.00   0.00
    16   1     0.01   0.18   0.00     0.00   0.00   0.25     0.00   0.00   0.00
    17   6    -0.18  -0.06   0.00     0.00   0.00   0.05     0.00   0.00  -0.08
    18   6    -0.20  -0.09   0.00     0.00   0.00   0.03     0.00   0.00   0.13
    19   6     0.20  -0.10   0.00     0.00   0.00   0.03     0.00   0.00  -0.13
    20   6     0.17  -0.07   0.00     0.00   0.00   0.05     0.00   0.00   0.08
    21   1    -0.06  -0.07   0.00     0.00   0.00  -0.29     0.00   0.00  -0.43
    22   1    -0.31   0.12   0.00     0.00   0.00  -0.36     0.00   0.00   0.02
    23   1     0.06  -0.07   0.00     0.00   0.00  -0.29     0.00   0.00   0.43
    24   1     0.32   0.10   0.00     0.00   0.00  -0.36     0.00   0.00  -0.02
                     19                     20                     21
                      A                      A                      A
 Frequencies --    766.0581               775.2673               781.7024
 Red. masses --      5.6309                 1.3359                 2.9398
 Frc consts  --      1.9469                 0.4731                 1.0584
 IR Inten    --      0.0000                 0.0000                 0.0000
  Atom  AN      X      Y      Z        X      Y      Z        X      Y      Z
     1   6     0.00   0.01   0.00     0.00   0.00  -0.04     0.00   0.00   0.08
     2   6     0.00  -0.01   0.00     0.00   0.00  -0.04     0.00   0.00  -0.08
     3   6    -0.06   0.17   0.00     0.00   0.00  -0.06     0.00   0.00  -0.03
     4   6     0.01   0.13   0.00     0.00   0.00   0.05     0.00   0.00   0.19
     5   6    -0.08  -0.17   0.00     0.00   0.00  -0.06     0.00   0.00   0.03
     6   6     0.00  -0.13   0.00     0.00   0.00   0.05     0.00   0.00  -0.19
     7   1    -0.08  -0.12   0.00     0.00   0.00   0.41     0.00   0.00  -0.03
     8   1    -0.19   0.18   0.00     0.00   0.00   0.27     0.00   0.00  -0.30
     9   1    -0.07   0.13   0.00     0.00   0.00   0.41     0.00   0.00   0.03
    10   1    -0.20  -0.17   0.00     0.00   0.00   0.27     0.00   0.00   0.30
    11   6     0.01   0.32   0.00     0.00   0.00   0.00     0.00   0.00  -0.04
    12   6     0.00   0.13   0.00     0.00   0.00  -0.05     0.00   0.00   0.19
    13   6    -0.01  -0.13   0.00     0.00   0.00  -0.05     0.00   0.00  -0.19
    14   6    -0.01  -0.32   0.00     0.00   0.00   0.00     0.00   0.00   0.04
    15   1     0.01   0.33   0.00     0.00   0.00   0.00     0.00   0.00  -0.48
    16   1    -0.01  -0.33   0.00     0.00   0.00   0.00     0.00   0.00   0.48
    17   6     0.08   0.17   0.00     0.00   0.00   0.06     0.00   0.00  -0.03
    18   6     0.00   0.01   0.00     0.00   0.00   0.04     0.00   0.00   0.08
    19   6     0.00  -0.01   0.00     0.00   0.00   0.04     0.00   0.00  -0.08
    20   6     0.06  -0.17   0.00     0.00   0.00   0.06     0.00   0.00   0.03
    21   1     0.20   0.17   0.00     0.00   0.00  -0.27     0.00   0.00  -0.30
    22   1     0.07  -0.13   0.00     0.00   0.00  -0.41     0.00   0.00  -0.03
    23   1     0.19  -0.18   0.00     0.00   0.00  -0.27     0.00   0.00   0.30
    24   1     0.08   0.12   0.00     0.00   0.00  -0.41     0.00   0.00   0.03
                     22                     23                     24
                      A                      A                      A
 Frequencies --    825.2923               851.3580               871.2430
 Red. masses --      3.6318                 1.2700                 1.5357
 Frc consts  --      1.4574                 0.5423                 0.6868
 IR Inten    --      0.0045                 0.0000                 0.0000
  Atom  AN      X      Y      Z        X      Y      Z        X      Y      Z
     1   6    -0.07   0.03   0.00     0.00   0.00   0.05     0.00   0.00  -0.05
     2   6    -0.07  -0.03   0.00     0.00   0.00  -0.05     0.00   0.00   0.05
     3   6    -0.08   0.13   0.00     0.00   0.00   0.05     0.00   0.00  -0.07
     4   6     0.07   0.10   0.00     0.00   0.00  -0.03     0.00   0.00   0.06
     5   6    -0.08  -0.12   0.00     0.00   0.00  -0.05     0.00   0.00   0.07
     6   6     0.07  -0.10   0.00     0.00   0.00   0.03     0.00   0.00  -0.06
     7   1    -0.12  -0.03   0.00     0.00   0.00  -0.23     0.00   0.00   0.30
     8   1    -0.20   0.14   0.00     0.00   0.00  -0.35     0.00   0.00   0.39
     9   1    -0.11   0.04   0.00     0.00   0.00   0.23     0.00   0.00  -0.30
    10   1    -0.21  -0.13   0.00     0.00   0.00   0.35     0.00   0.00  -0.39
    11   6     0.18  -0.01   0.00     0.00   0.00  -0.04     0.00   0.00   0.00
    12   6     0.07  -0.10   0.00     0.00   0.00  -0.03     0.00   0.00  -0.06
    13   6     0.07   0.10   0.00     0.00   0.00   0.03     0.00   0.00   0.06
    14   6     0.18  -0.01   0.00     0.00   0.00   0.04     0.00   0.00   0.00
    15   1     0.48  -0.02   0.00     0.00   0.00   0.37     0.00   0.00   0.00
    16   1     0.48  -0.02   0.00     0.00   0.00  -0.37     0.00   0.00   0.00
    17   6    -0.08  -0.12   0.00     0.00   0.00   0.05     0.00   0.00   0.07
    18   6    -0.07  -0.03   0.00     0.00   0.00   0.05     0.00   0.00   0.05
    19   6    -0.07   0.03   0.00     0.00   0.00  -0.05     0.00   0.00  -0.05
    20   6    -0.08   0.13   0.00     0.00   0.00  -0.05     0.00   0.00  -0.07
    21   1    -0.21  -0.13   0.00     0.00   0.00  -0.35     0.00   0.00  -0.39
    22   1    -0.11   0.04   0.00     0.00   0.00  -0.23     0.00   0.00  -0.30
    23   1    -0.20   0.14   0.00     0.00   0.00   0.35     0.00   0.00   0.39
    24   1    -0.12  -0.03   0.00     0.00   0.00   0.23     0.00   0.00   0.30
                     25                     26                     27
                      A                      A                      A
 Frequencies --    894.6752               916.2414               916.8748
 Red. masses --      1.4411                 5.5827                 1.6744
 Frc consts  --      0.6796                 2.7613                 0.8294
 IR Inten    --     51.4182                 1.7463                 0.0000
  Atom  AN      X      Y      Z        X      Y      Z        X      Y      Z
     1   6     0.00   0.00   0.03    -0.14   0.12   0.00     0.00   0.00  -0.02
     2   6     0.00   0.00   0.03     0.15   0.11   0.00     0.00   0.00   0.02
     3   6     0.00   0.00   0.01     0.00  -0.20   0.00     0.00   0.00  -0.04
     4   6     0.00   0.00  -0.05     0.05  -0.03   0.00     0.00   0.00   0.07
     5   6     0.00   0.00   0.01    -0.01  -0.20   0.00     0.00   0.00   0.04
     6   6     0.00   0.00  -0.05    -0.05  -0.03   0.00     0.00   0.00  -0.07
     7   1     0.00   0.00  -0.22    -0.13   0.13   0.00     0.00   0.00   0.18
     8   1     0.00   0.00   0.04     0.20  -0.21   0.00     0.00   0.00   0.12
     9   1     0.00   0.00  -0.22     0.14   0.12   0.00     0.00   0.00  -0.18
    10   1     0.00   0.00   0.04    -0.22  -0.19   0.00     0.00   0.00  -0.12
    11   6     0.00   0.00   0.11     0.01   0.23   0.00     0.00   0.00  -0.12
    12   6     0.00   0.00  -0.05    -0.05  -0.03   0.00     0.00   0.00   0.07
    13   6     0.00   0.00  -0.05     0.05  -0.03   0.00     0.00   0.00  -0.07
    14   6     0.00   0.00   0.11     0.01   0.23   0.00     0.00   0.00   0.12
    15   1     0.00   0.00  -0.62     0.01   0.24   0.00     0.00   0.00   0.61
    16   1     0.00   0.00  -0.62     0.01   0.24   0.00     0.00   0.00  -0.61
    17   6     0.00   0.00   0.01    -0.01  -0.20   0.00     0.00   0.00  -0.04
    18   6     0.00   0.00   0.03     0.15   0.11   0.00     0.00   0.00  -0.02
    19   6     0.00   0.00   0.03    -0.14   0.12   0.00     0.00   0.00   0.02
    20   6     0.00   0.00   0.01     0.00  -0.20   0.00     0.00   0.00   0.04
    21   1     0.00   0.00   0.04    -0.22  -0.19   0.00     0.00   0.00   0.12
    22   1     0.00   0.00  -0.22     0.14   0.12   0.00     0.00   0.00   0.18
    23   1     0.00   0.00   0.04     0.20  -0.21   0.00     0.00   0.00  -0.12
    24   1     0.00   0.00  -0.22    -0.13   0.13   0.00     0.00   0.00  -0.18
                     28                     29                     30
                      A                      A                      A
 Frequencies --    926.6022               962.4742               967.2491
 Red. masses --      5.4899                 1.3204                 1.3567
 Frc consts  --      2.7771                 0.7206                 0.7479
 IR Inten    --      0.0000                 0.0000                 5.7712
  Atom  AN      X      Y      Z        X      Y      Z        X      Y      Z
     1   6     0.20  -0.11   0.00     0.00   0.00   0.05     0.00   0.00  -0.05
     2   6    -0.21  -0.09   0.00     0.00   0.00   0.05     0.00   0.00  -0.05
     3   6     0.04   0.14   0.00     0.00   0.00  -0.06     0.00   0.00   0.07
     4   6    -0.10   0.02   0.00     0.00   0.00   0.01     0.00   0.00  -0.02
     5   6    -0.03   0.14   0.00     0.00   0.00  -0.07     0.00   0.00   0.07
     6   6     0.10   0.01   0.00     0.00   0.00   0.01     0.00   0.00  -0.02
     7   1     0.27   0.01   0.00     0.00   0.00  -0.31     0.00   0.00   0.29
     8   1    -0.09   0.14   0.00     0.00   0.00   0.38     0.00   0.00  -0.38
     9   1    -0.27   0.03   0.00     0.00   0.00  -0.32     0.00   0.00   0.29
    10   1     0.10   0.13   0.00     0.00   0.00   0.38     0.00   0.00  -0.38
    11   6    -0.20   0.01   0.00     0.00   0.00   0.00     0.00   0.00   0.03
    12   6    -0.10  -0.01   0.00     0.00   0.00  -0.01     0.00   0.00  -0.02
    13   6     0.10  -0.02   0.00     0.00   0.00  -0.01     0.00   0.00  -0.02
    14   6     0.20  -0.01   0.00     0.00   0.00   0.00     0.00   0.00   0.03
    15   1    -0.31   0.01   0.00     0.00   0.00   0.00     0.00   0.00  -0.17
    16   1     0.31  -0.01   0.00     0.00   0.00   0.00     0.00   0.00  -0.17
    17   6     0.03  -0.14   0.00     0.00   0.00   0.07     0.00   0.00   0.07
    18   6     0.21   0.09   0.00     0.00   0.00  -0.05     0.00   0.00  -0.05
    19   6    -0.20   0.11   0.00     0.00   0.00  -0.05     0.00   0.00  -0.05
    20   6    -0.04  -0.14   0.00     0.00   0.00   0.06     0.00   0.00   0.07
    21   1    -0.10  -0.13   0.00     0.00   0.00  -0.38     0.00   0.00  -0.38
    22   1     0.27  -0.03   0.00     0.00   0.00   0.32     0.00   0.00   0.29
    23   1     0.09  -0.14   0.00     0.00   0.00  -0.38     0.00   0.00  -0.38
    24   1    -0.27  -0.01   0.00     0.00   0.00   0.31     0.00   0.00   0.29
                     31                     32                     33
                      A                      A                      A
 Frequencies --    992.4375               993.5963              1034.0606
 Red. masses --      1.2724                 1.2839                 2.2995
 Frc consts  --      0.7384                 0.7468                 1.4487
 IR Inten    --      0.0000                 0.0000                 4.0841
  Atom  AN      X      Y      Z        X      Y      Z        X      Y      Z
     1   6     0.00   0.00  -0.06     0.00   0.00   0.06     0.07  -0.13   0.00
     2   6     0.00   0.00   0.06     0.00   0.00  -0.06     0.08   0.13   0.00
     3   6     0.00   0.00   0.05     0.00   0.00  -0.05    -0.04  -0.06   0.00
     4   6     0.00   0.00   0.00     0.00   0.00   0.00    -0.02   0.03   0.00
     5   6     0.00   0.00  -0.04     0.00   0.00   0.05    -0.04   0.06   0.00
     6   6     0.00   0.00   0.00     0.00   0.00   0.00    -0.02  -0.03   0.00
     7   1     0.00   0.00   0.40     0.00   0.00  -0.39    -0.01  -0.29   0.00
     8   1     0.00   0.00  -0.30     0.00   0.00   0.30    -0.35  -0.05   0.00
     9   1     0.00   0.00  -0.39     0.00   0.00   0.39     0.01   0.29   0.00
    10   1     0.00   0.00   0.30     0.00   0.00  -0.30    -0.34   0.08   0.00
    11   6     0.00   0.00   0.00     0.00   0.00  -0.01     0.02   0.00   0.00
    12   6     0.00   0.00   0.00     0.00   0.00   0.00    -0.02  -0.03   0.00
    13   6     0.00   0.00   0.00     0.00   0.00   0.00    -0.02   0.03   0.00
    14   6     0.00   0.00   0.00     0.00   0.00   0.01     0.02   0.00   0.00
    15   1     0.00   0.00   0.00     0.00   0.00   0.05     0.16  -0.01   0.00
    16   1     0.00   0.00   0.00     0.00   0.00  -0.05     0.16  -0.01   0.00
    17   6     0.00   0.00  -0.04     0.00   0.00  -0.05    -0.04   0.06   0.00
    18   6     0.00   0.00   0.06     0.00   0.00   0.06     0.08   0.13   0.00
    19   6     0.00   0.00  -0.06     0.00   0.00  -0.06     0.07  -0.13   0.00
    20   6     0.00   0.00   0.05     0.00   0.00   0.05    -0.04  -0.06   0.00
    21   1     0.00   0.00   0.30     0.00   0.00   0.30    -0.34   0.08   0.00
    22   1     0.00   0.00  -0.39     0.00   0.00  -0.39     0.01   0.29   0.00
    23   1     0.00   0.00  -0.30     0.00   0.00  -0.30    -0.35  -0.05   0.00
    24   1     0.00   0.00   0.40     0.00   0.00   0.39    -0.01  -0.29   0.00
                     34                     35                     36
                      A                      A                      A
 Frequencies --   1038.3236              1132.3370              1169.3536
 Red. masses --      2.3847                 2.1520                 1.3424
 Frc consts  --      1.5148                 1.6257                 1.0815
 IR Inten    --      0.0000                 0.0000                 1.5051
  Atom  AN      X      Y      Z        X      Y      Z        X      Y      Z
     1   6    -0.08   0.13   0.00    -0.02  -0.03   0.00    -0.03  -0.03   0.00
     2   6    -0.09  -0.13   0.00     0.02  -0.04   0.00    -0.03   0.03   0.00
     3   6     0.05   0.06   0.00     0.01   0.11   0.00     0.03   0.00   0.00
     4   6     0.03  -0.02   0.00     0.06  -0.08   0.00    -0.06  -0.01   0.00
     5   6     0.05  -0.06   0.00    -0.01   0.11   0.00     0.03   0.00   0.00
     6   6     0.03   0.01   0.00    -0.06  -0.08   0.00    -0.06   0.02   0.00
     7   1     0.01   0.30   0.00    -0.23  -0.36   0.00    -0.15  -0.23   0.00
     8   1     0.35   0.06   0.00     0.11   0.12   0.00     0.33  -0.01   0.00
     9   1    -0.01  -0.30   0.00     0.20  -0.38   0.00    -0.14   0.25   0.00
    10   1     0.35  -0.08   0.00    -0.10   0.13   0.00     0.34  -0.01   0.00
    11   6     0.00   0.01   0.00     0.05   0.00   0.00     0.05   0.00   0.00
    12   6    -0.03  -0.01   0.00     0.06   0.08   0.00    -0.06   0.02   0.00
    13   6    -0.03   0.02   0.00    -0.06   0.08   0.00    -0.06  -0.01   0.00
    14   6     0.00  -0.01   0.00    -0.05   0.00   0.00     0.05   0.00   0.00
    15   1     0.00   0.01   0.00    -0.18   0.01   0.00     0.32  -0.01   0.00
    16   1     0.00  -0.01   0.00     0.18  -0.01   0.00     0.32  -0.01   0.00
    17   6    -0.05   0.06   0.00     0.01  -0.11   0.00     0.03   0.00   0.00
    18   6     0.09   0.13   0.00    -0.02   0.04   0.00    -0.03   0.03   0.00
    19   6     0.08  -0.13   0.00     0.02   0.03   0.00    -0.03  -0.03   0.00
    20   6    -0.05  -0.06   0.00    -0.01  -0.11   0.00     0.03   0.00   0.00
    21   1    -0.35   0.08   0.00     0.10  -0.13   0.00     0.34  -0.01   0.00
    22   1     0.01   0.30   0.00    -0.20   0.38   0.00    -0.14   0.25   0.00
    23   1    -0.35  -0.06   0.00    -0.11  -0.12   0.00     0.33  -0.01   0.00
    24   1    -0.01  -0.30   0.00     0.23   0.36   0.00    -0.15  -0.23   0.00
                     37                     38                     39
                      A                      A                      A
 Frequencies --   1177.7509              1194.1962              1195.7027
 Red. masses --      1.3708                 1.0647                 1.3556
 Frc consts  --      1.1203                 0.8946                 1.1419
 IR Inten    --      4.9349                 0.0000                 1.7686
  Atom  AN      X      Y      Z        X      Y      Z        X      Y      Z
     1   6    -0.02  -0.03   0.00     0.02   0.02   0.00     0.02   0.01   0.00
     2   6     0.02  -0.03   0.00     0.02  -0.02   0.00     0.01  -0.01   0.00
     3   6     0.04   0.06   0.00    -0.01   0.00   0.00     0.02  -0.03   0.00
     4   6     0.02  -0.04   0.00     0.00   0.02   0.00    -0.07   0.04   0.00
     5   6    -0.03   0.06   0.00    -0.01   0.00   0.00     0.02   0.02   0.00
     6   6    -0.02  -0.03   0.00    -0.01  -0.02   0.00    -0.07  -0.04   0.00
     7   1    -0.20  -0.32   0.00     0.22   0.35   0.00     0.21   0.32   0.00
     8   1     0.32   0.05   0.00    -0.28   0.00   0.00    -0.03  -0.03   0.00
     9   1     0.17  -0.33   0.00     0.20  -0.36   0.00     0.19  -0.33   0.00
    10   1    -0.30   0.07   0.00    -0.28   0.01   0.00    -0.03   0.03   0.00
    11   6     0.00   0.05   0.00     0.00  -0.01   0.00     0.01   0.00   0.00
    12   6    -0.02  -0.03   0.00     0.01   0.02   0.00    -0.07  -0.04   0.00
    13   6     0.02  -0.04   0.00     0.00  -0.02   0.00    -0.07   0.04   0.00
    14   6     0.00   0.05   0.00     0.00   0.01   0.00     0.01   0.00   0.00
    15   1     0.01   0.05   0.00     0.00  -0.01   0.00     0.44  -0.01   0.00
    16   1     0.01   0.05   0.00     0.00   0.01   0.00     0.44  -0.01   0.00
    17   6    -0.03   0.06   0.00     0.01   0.00   0.00     0.02   0.02   0.00
    18   6     0.02  -0.03   0.00    -0.02   0.02   0.00     0.01  -0.01   0.00
    19   6    -0.02  -0.03   0.00    -0.02  -0.02   0.00     0.02   0.01   0.00
    20   6     0.04   0.06   0.00     0.01   0.00   0.00     0.02  -0.03   0.00
    21   1    -0.30   0.07   0.00     0.28  -0.01   0.00    -0.03   0.03   0.00
    22   1     0.17  -0.33   0.00    -0.20   0.36   0.00     0.19  -0.33   0.00
    23   1     0.32   0.05   0.00     0.28   0.00   0.00    -0.03  -0.03   0.00
    24   1    -0.20  -0.32   0.00    -0.22  -0.35   0.00     0.21   0.32   0.00
                     40                     41                     42
                      A                      A                      A
 Frequencies --   1217.1381              1293.4881              1300.3935
 Red. masses --      1.2139                 1.9095                 1.8258
 Frc consts  --      1.0595                 1.8824                 1.8191
 IR Inten    --      0.0000                 7.5200                 0.0000
  Atom  AN      X      Y      Z        X      Y      Z        X      Y      Z
     1   6     0.00  -0.02   0.00    -0.01  -0.02   0.00     0.00  -0.02   0.00
     2   6     0.00  -0.02   0.00     0.01  -0.02   0.00     0.03   0.02   0.00
     3   6     0.03  -0.01   0.00     0.00  -0.04   0.00     0.02  -0.05   0.00
     4   6    -0.05   0.02   0.00    -0.06   0.11   0.00    -0.07   0.10   0.00
     5   6    -0.03  -0.01   0.00    -0.01  -0.04   0.00    -0.02   0.00   0.00
     6   6     0.05   0.02   0.00     0.07   0.10   0.00    -0.11   0.06   0.00
     7   1    -0.06  -0.11   0.00     0.05   0.08   0.00     0.04   0.03   0.00
     8   1     0.41  -0.02   0.00     0.46  -0.06   0.00     0.36  -0.06   0.00
     9   1     0.05  -0.12   0.00    -0.05   0.09   0.00     0.11  -0.14   0.00
    10   1    -0.41   0.00   0.00    -0.46  -0.03   0.00     0.03   0.01   0.00
    11   6    -0.02   0.00   0.00     0.00  -0.08   0.00    -0.02   0.04   0.00
    12   6    -0.05  -0.02   0.00     0.07   0.10   0.00     0.11  -0.06   0.00
    13   6     0.05  -0.02   0.00    -0.06   0.11   0.00     0.07  -0.10   0.00
    14   6     0.02   0.00   0.00     0.00  -0.08   0.00     0.02  -0.04   0.00
    15   1     0.36  -0.01   0.00     0.00  -0.08   0.00    -0.54   0.07   0.00
    16   1    -0.36   0.01   0.00     0.00  -0.08   0.00     0.54  -0.07   0.00
    17   6     0.03   0.01   0.00    -0.01  -0.04   0.00     0.02   0.00   0.00
    18   6     0.00   0.02   0.00     0.01  -0.02   0.00    -0.03  -0.02   0.00
    19   6     0.00   0.02   0.00    -0.01  -0.02   0.00     0.00   0.02   0.00
    20   6    -0.03   0.01   0.00     0.00  -0.04   0.00    -0.02   0.05   0.00
    21   1     0.41   0.00   0.00    -0.46  -0.03   0.00    -0.03  -0.01   0.00
    22   1    -0.05   0.12   0.00    -0.05   0.09   0.00    -0.11   0.14   0.00
    23   1    -0.41   0.02   0.00     0.46  -0.06   0.00    -0.36   0.06   0.00
    24   1     0.06   0.11   0.00     0.05   0.08   0.00    -0.04  -0.03   0.00
                     43                     44                     45
                      A                      A                      A
 Frequencies --   1300.6632              1345.5843              1391.7062
 Red. masses --      2.0835                 3.2544                 3.3168
 Frc consts  --      2.0767                 3.4717                 3.7850
 IR Inten    --      0.0000                 4.6400                 3.6123
  Atom  AN      X      Y      Z        X      Y      Z        X      Y      Z
     1   6     0.03  -0.02   0.00    -0.04   0.04   0.00    -0.05  -0.06   0.00
     2   6     0.01   0.02   0.00     0.05   0.04   0.00    -0.04   0.07   0.00
     3   6    -0.01  -0.01   0.00     0.08  -0.05   0.00     0.07   0.05   0.00
     4   6    -0.14  -0.03   0.00     0.13   0.11   0.00    -0.09  -0.09   0.00
     5   6     0.03   0.05   0.00    -0.08  -0.04   0.00     0.06  -0.06   0.00
     6   6    -0.11  -0.09   0.00    -0.12   0.12   0.00    -0.09   0.10   0.00
     7   1     0.14   0.15   0.00    -0.24  -0.27   0.00     0.08   0.16   0.00
     8   1     0.11  -0.02   0.00    -0.23  -0.03   0.00    -0.23   0.07   0.00
     9   1     0.06  -0.07   0.00     0.22  -0.29   0.00     0.07  -0.17   0.00
    10   1     0.40   0.04   0.00     0.23  -0.05   0.00    -0.24  -0.05   0.00
    11   6     0.02   0.05   0.00    -0.01  -0.15   0.00     0.21  -0.01   0.00
    12   6     0.11   0.09   0.00    -0.12   0.12   0.00    -0.09   0.10   0.00
    13   6     0.14   0.03   0.00     0.13   0.11   0.00    -0.09  -0.09   0.00
    14   6    -0.02  -0.05   0.00    -0.01  -0.15   0.00     0.21  -0.01   0.00
[...]
 429590,0.02706774,0.,-0.00094700,0.00008533,0.,-0.00472015,0.00118784,
 0.,0.00102439,0.00033057,0.,0.05908636,0.00239804,-0.01119144,0.,-0.00
 302029,0.00110234,0.,-0.00930502,-0.33541837,0.,-0.00259827,-0.0135047
 6,0.,0.00024510,0.00058393,0.,0.00302557,0.00086673,0.,-0.00023417,0.0
 0094211,0.,0.01038275,0.35668248,0.,0.,0.00363301,0.,0.,0.00846784,0.,
 0.,-0.03535379,0.,0.,0.00284569,0.,0.,-0.00019211,0.,0.,0.00429526,0.,
 0.,-0.00520856,0.,0.,0.02462337,0.00276424,0.00209880,0.,-0.27906132,-
 0.11431153,0.,0.00147739,0.00032069,0.,0.00003603,0.00051627,0.,-0.019
 57171,-0.01516806,0.,-0.00196646,0.00436361,0.,0.00069255,-0.00038437,
 0.,0.00002043,0.00014597,0.,0.29550898,-0.02954844,-0.00923762,0.,-0.1
 1501705,-0.11957540,0.,0.00159194,-0.00580464,0.,0.00105523,-0.0004548
 7,0.,0.01678616,0.01196273,0.,0.00308294,-0.00192992,0.,0.00041391,0.0
 0110204,0.,-0.00151462,-0.00066921,0.,0.12310810,0.12278380,0.,0.,0.00
 214409,0.,0.,-0.03580916,0.,0.,0.00431809,0.,0.,-0.00027923,0.,0.,0.00
 323093,0.,0.,0.00941172,0.,0.,-0.00233779,0.,0.,0.00031581,0.,0.,0.025
 03635,-0.00442702,0.00173441,0.,0.00541196,0.02856688,0.,-0.00096210,0
 .00001797,0.,-0.00497628,-0.00079260,0.,-0.05949533,-0.01010946,0.,0.0
 0256311,-0.02819314,0.,0.00010927,0.00146178,0.,0.00022758,-0.00001134
 ,0.,0.00101207,-0.00032771,0.,0.05900109,0.00339848,0.00077181,0.,-0.0
 0352776,-0.01295346,0.,-0.00014013,0.00059989,0.,-0.00262169,0.0011338
 0,0.,-0.00930053,-0.33531644,0.,0.00149961,-0.01176335,0.,-0.00019824,
 -0.00075838,0.,-0.00001218,-0.00012023,0.,0.00022387,0.00094563,0.,0.0
 0974567,0.35666359,0.,0.,0.00846559,0.,0.,0.00363758,0.,0.,-0.00019197
 ,0.,0.,0.00429748,0.,0.,-0.03534963,0.,0.,0.00284134,0.,0.,0.00031614,
 0.,0.,-0.00137646,0.,0.,-0.00520566,0.,0.,0.02461989,0.01575345,0.0274
 0136,0.,0.00769782,-0.02064448,0.,-0.07262025,-0.00693227,0.,-0.261964
 17,-0.07989151,0.,-0.01519690,0.00202565,0.,0.03225771,-0.04913302,0.,
 -0.00047121,-0.00014465,0.,0.00152910,-0.00191244,0.,0.00024602,-0.000
 34428,0.,0.00042583,0.00068303,0.,0.68035711,0.00678828,-0.00075909,0.
 ,0.00053698,-0.00253447,0.,0.01042072,0.01659203,0.,-0.11029881,-0.173
 44165,0.,0.00154079,-0.00533913,0.,-0.02963428,-0.02088977,0.,0.001328
 56,0.00072375,0.,0.00156094,0.00072195,0.,-0.00005790,0.00017192,0.,-0
 .00152916,-0.00070782,0.,0.00129025,0.72198016,0.,0.,0.00470983,0.,0.,
 -0.00039083,0.,0.,0.00387440,0.,0.,-0.06142338,0.,0.,0.00392827,0.,0.,
 0.00589242,0.,0.,0.00041325,0.,0.,-0.00257747,0.,0.,-0.00073867,0.,0.,
 0.00019792,0.,0.,0.12962873,-0.00924141,-0.01335156,0.,-0.00539769,0.0
 1222191,0.,0.01836099,-0.00699234,0.,-0.07266459,-0.00999324,0.,0.0097
 8218,0.00081054,0.,-0.01921115,0.02266449,0.,-0.00047736,-0.00031653,0
 .,0.00012665,0.00044105,0.,-0.00005191,0.00013901,0.,0.00025418,-0.000
 02395,0.,-0.24883553,0.11547903,0.,0.70208115,0.00608158,0.01139451,0.
 ,0.00535263,-0.01036462,0.,-0.01712304,-0.00077837,0.,0.01693956,0.032
 12463,0.,-0.01153474,-0.00090433,0.,0.02266449,-0.01876238,0.,-0.00029
 746,-0.00001553,0.,-0.00047082,0.00021918,0.,0.00010962,-0.00017733,0.
 ,-0.00010263,0.00018072,0.,0.08505105,-0.18650508,0.,-0.01899960,0.626
 53587,0.,0.,0.00033388,0.,0.,0.00024699,0.,0.,0.00740611,0.,0.,0.00372
 499,0.,0.,-0.00073755,0.,0.,-0.00473364,0.,0.,-0.00101423,0.,0.,-0.000
 14136,0.,0.,0.00015843,0.,0.,-0.00014492,0.,0.,-0.06145478,0.,0.,0.157
 44072,-0.00660403,-0.01247655,0.,-0.00865916,0.01470816,0.,0.01045061,
 -0.00157995,0.,-0.02237701,-0.02233830,0.,0.01988841,0.00559300,0.,-0.
 07266460,0.01693957,0.,-0.00006940,-0.00014604,0.,0.00026241,0.0000192
 6,0.,-0.00043415,0.00034509,0.,0.00012783,-0.00043603,0.,0.03732556,0.
 02564060,0.,-0.13767838,0.00451010,0.,0.70424075,-0.00560714,-0.009157
 63,0.,-0.00472541,0.01081067,0.,0.01077037,-0.00158258,0.,-0.02233829,
 -0.01566971,0.,0.01571463,-0.00231541,0.,-0.00999324,0.03212463,0.,-0.
 00011692,-0.00016007,0.,0.00009805,0.00017142,0.,0.00032591,-0.0000589
 0,0.,0.00047668,0.00021684,0.,0.04520294,-0.02613402,0.,-0.01178442,-0
 .24158653,0.,0.01407337,0.62429023,0.,0.,0.00024698,0.,0.,0.00033387,0
 .,0.,-0.00073983,0.,0.,-0.00472097,0.,0.,0.00740716,0.,0.,0.00372499,0
 .,0.,0.00015850,0.,0.,-0.00014507,0.,0.,-0.00101435,0.,0.,-0.00014160,
 0.,0.,0.00586011,0.,0.,-0.07165112,0.,0.,0.15742366,0.00899906,0.01986
 679,0.,0.01338635,-0.02836504,0.,-0.01539368,-0.00134004,0.,0.03732556
 ,0.04520295,0.,-0.07244668,0.01296707,0.,-0.24883561,0.08505110,0.,0.0
 0027276,0.00033709,0.,0.00047785,-0.00076328,0.,-0.00054574,0.00023031
 ,0.,0.00154972,0.00187381,0.,-0.05206256,0.00166366,0.,0.03225771,-0.0
 4913303,0.,-0.26196431,-0.07989158,0.,0.68035735,-0.00131811,-0.003847
 73,0.,-0.00774502,0.00161973,0.,-0.00085455,-0.00513073,0.,0.02564061,
 -0.02613402,0.,-0.00438541,0.01641928,0.,0.11547908,-0.18650511,0.,0.0
 0005074,0.00014523,0.,0.00144717,-0.00075857,0.,-0.00124244,0.00079793
 ,0.,-0.00163499,0.00070207,0.,0.00166367,-0.00227856,0.,-0.02963429,-0
 .02088977,0.,-0.11029888,-0.17344167,0.,0.00129027,0.72198035,0.,0.,-0
 .00039297,0.,0.,0.00470912,0.,0.,0.00392261,0.,0.,0.00586012,0.,0.,0.0
 0387473,0.,0.,-0.06145477,0.,0.,-0.00073858,0.,0.,0.00019774,0.,0.,0.0
 0041335,0.,0.,-0.00258231,0.,0.,-0.00292199,0.,0.,0.00589242,0.,0.,-0.
 06142338,0.,0.,0.12962871,0.00015952,0.00044807,0.,0.00017945,-0.00017
 908,0.,0.00147024,-0.00176985,0.,0.00279924,-0.02842829,0.,0.00037459,
 -0.00144839,0.,-0.00482936,-0.00092830,0.,-0.00001001,0.00001595,0.,-0
 .00031519,0.00088458,0.,-0.00002048,0.00006619,0.,-0.00040542,-0.00022
 713,0.,-0.05981274,-0.00909446,0.,0.00456292,0.02724646,0.,-0.00455593
 ,0.00131870,0.,-0.00092891,0.00004740,0.,0.05965734,-0.00032411,-0.000
 01159,0.,-0.00007973,0.00022655,0.,0.00199893,0.00075387,0.,0.00129081
 ,-0.01225657,0.,0.00069524,-0.00072814,0.,-0.00275020,0.00122896,0.,-0
 .00006665,-0.00000758,0.,-0.00087214,0.00055661,0.,-0.00004132,0.00005
 017,0.,-0.00023418,-0.00013448,0.,-0.00917019,-0.33203509,0.,-0.002441
 24,-0.01402420,0.,0.00314848,0.00094546,0.,0.00004816,0.00048766,0.,0.
 00998002,0.35449198,0.,0.,-0.00012792,0.,0.,-0.00018800,0.,0.,-0.00379
 113,0.,0.,0.00328422,0.,0.,0.00018644,0.,0.,0.00582487,0.,0.,0.0002597
 1,0.,0.,0.00022285,0.,0.,0.00004488,0.,0.,0.00026284,0.,0.,-0.03425610
 ,0.,0.,0.00328900,0.,0.,0.00582249,0.,0.,-0.00014542,0.,0.,0.02375585,
 0.00019724,0.00018247,0.,0.00015132,-0.00045977,0.,0.00042060,0.001368
 85,0.,-0.00455593,0.00131870,0.,0.00145196,0.00170542,0.,0.00456292,0.
 02724647,0.,-0.00002185,-0.00006132,0.,-0.00037317,0.00024328,0.,-0.00
 000653,-0.00001602,0.,-0.00031825,-0.00088286,0.,-0.00092891,0.0000474
 0,0.,-0.00482936,-0.00092830,0.,0.00279924,-0.02842830,0.,-0.05981273,
 -0.00909446,0.,0.00017343,-0.00001190,0.,0.05965734,0.00008249,0.00020
 772,0.,0.00031189,-0.00000274,0.,-0.00077303,-0.00077270,0.,0.00314848
 ,0.00094546,0.,-0.00202962,0.00077279,0.,-0.00244124,-0.01402420,0.,0.
 00004621,0.00005148,0.,0.00025034,-0.00016677,0.,0.00006649,-0.0000109
 5,0.,0.00087523,0.00055705,0.,0.00004816,0.00048766,0.,-0.00275020,0.0
 0122896,0.,0.00129081,-0.01225657,0.,-0.00917020,-0.33203522,0.,-0.000
 01190,-0.00017948,0.,0.00998002,0.35449212,0.,0.,-0.00018816,0.,0.,-0.
 00012769,0.,0.,0.00018636,0.,0.,0.00582249,0.,0.,-0.00378646,0.,0.,0.0
 0328900,0.,0.,0.00004487,0.,0.,0.00026289,0.,0.,0.00025988,0.,0.,0.000
 22344,0.,0.,-0.00014541,0.,0.,0.00582487,0.,0.,0.00328422,0.,0.,-0.034
 25609,0.,0.,-0.00131971,0.,0.,0.02375583,0.00451295,0.00789947,0.,0.00
 277816,-0.00691116,0.,-0.01059151,0.00089458,0.,0.01988841,0.01571463,
 0.,-0.00539637,-0.00034570,0.,0.00978218,-0.01153474,0.,0.00001901,0.0
 0004910,0.,-0.00005647,-0.00008542,0.,0.00007675,-0.00010306,0.,-0.000
 04568,0.00005698,0.,-0.07244666,-0.00438540,0.,-0.21929316,-0.07013573
 ,0.,0.02889226,-0.03463801,0.,-0.01519691,0.00154079,0.,0.00145196,-0.
 00202962,0.,0.00037459,0.00069524,0.,0.68167097,0.00068330,0.00022605,
 0.,0.00023091,-0.00038794,0.,-0.00007894,0.00145479,0.,0.00559300,-0.0
 0231541,0.,-0.00034570,-0.00010621,0.,0.00081054,-0.00090432,0.,0.0001
 7827,0.00005785,0.,0.00001350,-0.00011567,0.,0.00002732,0.00002570,0.,
 0.00007566,0.00012996,0.,0.01296707,0.01641928,0.,-0.08921290,-0.15994
 128,0.,-0.03110440,-0.01693126,0.,0.00202566,-0.00533913,0.,0.00170541
 ,0.00077279,0.,-0.00144839,-0.00072814,0.,-0.06276698,0.73947844,0.,0.
 ,-0.00065738,0.,0.,0.00018201,0.,0.,0.00061907,0.,0.,0.00740716,0.,0.,
 -0.00062747,0.,0.,-0.00073755,0.,0.,-0.00007576,0.,0.,0.00010635,0.,0.
 ,0.00005863,0.,0.,0.00001642,0.,0.,0.00387473,0.,0.,-0.06504015,0.,0.,
 0.00558751,0.,0.,0.00392827,0.,0.,-0.00378646,0.,0.,0.00018644,0.,0.,0
 .13038952,-0.00178934,-0.00362550,0.,-0.00168189,0.00297120,0.,0.00391
 643,-0.00093344,0.,-0.00865916,-0.00472541,0.,0.00277817,0.00023091,0.
 ,-0.00539769,0.00535263,0.,-0.00011379,-0.00004340,0.,0.00004398,0.000
 04880,0.,-0.00002871,0.00003653,0.,-0.00003426,-0.00011192,0.,0.013386
 35,-0.00774502,0.,-0.06128890,0.00416958,0.,-0.01417157,0.01153517,0.,
 0.00769782,0.00053698,0.,0.00015132,0.00031189,0.,0.00017945,-0.000079
 73,0.,-0.33095607,0.15529894,0.,0.76930030,0.00419391,0.00661593,0.,0.
 00297120,-0.00703014,0.,-0.00814916,0.00082451,0.,0.01470816,0.0108106
 7,0.,-0.00691116,-0.00038795,0.,0.01222192,-0.01036462,0.,0.00001876,0
 .00008211,0.,-0.00000888,-0.00010296,0.,0.00008253,-0.00008609,0.,-0.0
 0005649,0.00004340,0.,-0.02836503,0.00161973,0.,0.03339635,0.03202823,
 0.,0.03384503,-0.01837862,0.,-0.02064448,-0.00253447,0.,-0.00045977,-0
 .00000274,0.,-0.00017908,0.00022655,0.,0.10010659,-0.20734332,0.,-0.00
 472311,0.64672538,0.,0.,0.00008613,0.,0.,-0.00013535,0.,0.,-0.00065734
 ,0.,0.,0.00033387,0.,0.,0.00018201,0.,0.,0.00024699,0.,0.,0.00008884,0
 .,0.,0.00000750,0.,0.,-0.00000678,0.,0.,-0.00002217,0.,0.,0.00470912,0
 .,0.,0.00618577,0.,0.,-0.00742254,0.,0.,-0.00039083,0.,0.,-0.00012769,
 0.,0.,-0.00018800,0.,0.,-0.05714521,0.,0.,0.12812784,-0.00210557,-0.00
 330408,0.,-0.00178935,0.00419391,0.,0.00321327,-0.00047467,0.,-0.00660
 403,-0.00560714,0.,0.00451296,0.00068330,0.,-0.00924141,0.00608158,0.,
 -0.00003696,-0.00003977,0.,-0.00002264,0.00011644,0.,-0.00011118,0.000
 05654,0.,0.00004055,-0.00005850,0.,0.00899906,-0.00131811,0.,-0.017364
 18,-0.01149126,0.,-0.06338145,0.00211913,0.,0.01575346,0.00678828,0.,0
 .00019724,0.00008249,0.,0.00015952,-0.00032411,0.,0.02995288,0.0252839
 5,0.,-0.12315582,0.02538071,0.,0.76943918,-0.00330408,-0.00660549,0.,-
 0.00362550,0.00661593,0.,0.00666791,-0.00082403,0.,-0.01247655,-0.0091
 5763,0.,0.00789947,0.00022605,0.,-0.01335156,0.01139451,0.,-0.00008585
 ,-0.00007774,0.,0.00006102,0.00003169,0.,-0.00000561,0.00007965,0.,-0.
 00000101,-0.00009950,0.,0.01986679,-0.00384773,0.,-0.03385082,-0.01526
 695,0.,-0.02707641,0.03415701,0.,0.02740136,-0.00075909,0.,0.00018247,
 0.00020772,0.,0.00044807,-0.00001159,0.,0.06330084,-0.03529445,0.,-0.0
 3622248,-0.28143962,0.,-0.00333613,0.64700646,0.,0.,-0.00013538,0.,0.,
 0.00008613,0.,0.,0.00018202,0.,0.,0.00024698,0.,0.,-0.00065738,0.,0.,0
 .00033388,0.,0.,-0.00000679,0.,0.,-0.00002218,0.,0.,0.00008886,0.,0.,0
 .00000749,0.,0.,-0.00039297,0.,0.,-0.00740834,0.,0.,0.00618503,0.,0.,0
 .00470983,0.,0.,-0.00018816,0.,0.,-0.00012792,0.,0.,0.00786280,0.,0.,-
 0.06020526,0.,0.,0.12815799,0.00321327,0.00666791,0.,0.00391643,-0.008
 14916,0.,-0.00532613,0.00069878,0.,0.01045061,0.01077037,0.,-0.0105915
 1,-0.00007894,0.,0.01836100,-0.01712304,0.,0.00008165,0.00009916,0.,-0
 .00005383,-0.00004459,0.,0.00000384,-0.00004555,0.,-0.00005194,0.00008
 089,0.,-0.01539368,-0.00085455,0.,0.03310978,0.03127172,0.,-0.20832547
 ,0.07343203,0.,-0.07262027,0.01042073,0.,0.00042060,-0.00077304,0.,0.0
 0147024,0.00199893,0.,-0.04671967,0.00605393,0.,0.02366881,-0.06728491
 ,0.,-0.34757281,-0.09058808,0.,0.69047429,-0.00047467,-0.00082403,0.,-
 0.00093344,0.00082451,0.,0.00069878,-0.00017735,0.,-0.00157995,-0.0015
 8258,0.,0.00089458,0.00145480,0.,-0.00699234,-0.00077837,0.,-0.0000312
 0,0.00002085,0.,-0.00006321,0.00013810,0.,-0.00017466,0.00007299,0.,-0
 .00001767,-0.00012040,0.,-0.00134004,-0.00513073,0.,0.02766891,-0.0213
 2057,0.,0.09255682,-0.17079011,0.,-0.00693226,0.01659203,0.,0.00136885
 ,-0.00077270,0.,-0.00176986,0.00075387,0.,-0.00297669,-0.00074795,0.,-
 0.02931642,-0.02887115,0.,-0.14577094,-0.19090104,0.,0.06596195,0.7308
 4829,0.,0.,0.00018202,0.,0.,-0.00065734,0.,0.,-0.00062712,0.,0.,-0.000
 73983,0.,0.,0.00061907,0.,0.,0.00740611,0.,0.,0.00005856,0.,0.,0.00001
 636,0.,0.,-0.00007578,0.,0.,0.00010628,0.,0.,0.00392261,0.,0.,0.005556
 22,0.,0.,-0.06505057,0.,0.,0.00387440,0.,0.,0.00018636,0.,0.,-0.003791
 13,0.,0.,-0.00415345,0.,0.,0.00789279,0.,0.,-0.05713158,0.,0.,0.130403
 87,0.00004055,-0.00000101,0.,-0.00003426,-0.00005649,0.,-0.00005194,-0
 .00001767,0.,0.00012783,0.00047668,0.,-0.00004568,0.00007566,0.,0.0002
 5418,-0.00010263,0.,0.00000423,0.00000831,0.,-0.00002543,0.00001439,0.
 ,-0.00000135,0.00001083,0.,0.00001565,0.00002260,0.,0.00154972,-0.0016
 3499,0.,0.00256311,-0.02819314,0.,-0.00497628,-0.00079260,0.,0.0004258
 3,-0.00152916,0.,-0.00031825,0.00087523,0.,-0.00040542,-0.00023418,0.,
 -0.05949533,-0.01010947,0.,0.00541196,0.02856687,0.,-0.00442702,0.0017
 3441,0.,-0.00096210,0.00001797,0.,0.05900109,-0.00005850,-0.00009950,0
 .,-0.00011192,0.00004340,0.,0.00008089,-0.00012040,0.,-0.00043603,0.00
 021684,0.,0.00005698,0.00012996,0.,-0.00002395,0.00018072,0.,-0.000019
 33,0.00000526,0.,-0.00001062,0.00003046,0.,-0.00001406,0.00000330,0.,0
 .00002260,-0.00000974,0.,0.00187381,0.00070207,0.,0.00149961,-0.011763
 35,0.,-0.00262169,0.00113380,0.,0.00068303,-0.00070782,0.,-0.00088286,
 0.00055705,0.,-0.00022713,-0.00013448,0.,-0.00930054,-0.33531640,0.,-0
 .00352776,-0.01295346,0.,0.00339848,0.00077181,0.,-0.00014013,0.000599
 89,0.,0.00974568,0.35666355,0.,0.,0.00000749,0.,0.,-0.00002217,0.,0.,0
 .00010628,0.,0.,-0.00014160,0.,0.,0.00001642,0.,0.,-0.00014492,0.,0.,-
 0.00001329,0.,0.,0.00001267,0.,0.,0.00000173,0.,0.,0.00002121,0.,0.,-0
 .00258231,0.,0.,0.00284134,0.,0.,0.00429748,0.,0.,0.00019792,0.,0.,0.0
 0022344,0.,0.,0.00026284,0.,0.,-0.03534963,0.,0.,0.00363758,0.,0.,0.00
 846559,0.,0.,-0.00019197,0.,0.,0.02461990,-0.00011118,-0.00000561,0.,-
 0.00002871,0.00008253,0.,0.00000385,-0.00017466,0.,-0.00043415,0.00032
 591,0.,0.00007675,0.00002732,0.,-0.00005191,0.00010962,0.,-0.00002749,
 -0.00000426,0.,0.00000497,0.00001934,0.,-0.00001623,-0.00000431,0.,-0.
 00000135,-0.00001406,0.,-0.00054574,-0.00124244,0.,-0.00196646,0.00436
 361,0.,0.00003603,0.00051627,0.,0.00024602,-0.00005790,0.,-0.00000653,
 0.00006649,0.,-0.00002048,-0.00004132,0.,-0.01957171,-0.01516806,0.,-0
 .27906133,-0.11431151,0.,0.00276424,0.00209880,0.,0.00147739,0.0003206
 9,0.,0.00101207,0.00022387,0.,0.29550899,0.00005654,0.00007965,0.,0.00
 003653,-0.00008609,0.,-0.00004555,0.00007299,0.,0.00034509,-0.00005890
 ,0.,-0.00010306,0.00002570,0.,0.00013901,-0.00017733,0.,0.00000655,0.0
 0000634,0.,-0.00000829,0.00000451,0.,-0.00000431,-0.00000176,0.,0.0000
 1083,0.00000330,0.,0.00023031,0.00079793,0.,0.00308294,-0.00192992,0.,
 0.00105523,-0.00045487,0.,-0.00034428,0.00017192,0.,-0.00001602,-0.000
 01095,0.,0.00006619,0.00005017,0.,0.01678616,0.01196273,0.,-0.11501703
 ,-0.11957538,0.,-0.02954844,-0.00923761,0.,0.00159194,-0.00580464,0.,-
 0.00032771,0.00094563,0.,0.12310808,0.12278377,0.,0.,0.00008886,0.,0.,
 -0.00000678,0.,0.,-0.00007578,0.,0.,-0.00101435,0.,0.,0.00005863,0.,0.
 ,0.00015843,0.,0.,0.00001731,0.,0.,-0.00001328,0.,0.,-0.00001933,0.,0.
 ,0.00000173,0.,0.,0.00041335,0.,0.,0.00941172,0.,0.,-0.00027923,0.,0.,
 -0.00073867,0.,0.,0.00025988,0.,0.,0.00004488,0.,0.,0.00323093,0.,0.,-
 0.03580916,0.,0.,0.00214409,0.,0.,0.00431809,0.,0.,-0.00520566,0.,0.,0
 .02503636,-0.00002264,0.00006102,0.,0.00004398,-0.00000888,0.,-0.00005
 383,-0.00006321,0.,0.00026241,0.00009805,0.,-0.00005647,0.00001350,0.,
 0.00012665,-0.00047082,0.,-0.00000112,-0.00001053,0.,0.00001251,-0.000
 02411,0.,0.00000497,-0.00000829,0.,-0.00002543,-0.00001062,0.,0.000477
 85,0.00144717,0.,-0.00472015,0.00118784,0.,0.00429590,0.02706774,0.,0.
 00152909,0.00156095,0.,-0.00037317,0.00025034,0.,-0.00031519,-0.000872
 14,0.,-0.00094700,0.00008533,0.,-0.00475004,-0.00136134,0.,0.00364188,
 -0.02970797,0.,-0.05948897,-0.00842056,0.,0.00022758,-0.00001218,0.,0.
 00002043,-0.00151462,0.,0.05908636,0.00011644,0.00003169,0.,0.00004880
 ,-0.00010296,0.,-0.00004459,0.00013810,0.,0.00001926,0.00017142,0.,-0.
 00008542,-0.00011567,0.,0.00044106,0.00021918,0.,0.00001436,0.00000306
 ,0.,-0.00002411,-0.00000659,0.,0.00001934,0.00000451,0.,0.00001439,0.0
 0003046,0.,-0.00076328,-0.00075857,0.,0.00302557,0.00086673,0.,-0.0025
 9827,-0.01350477,0.,-0.00191244,0.00072195,0.,0.00024328,-0.00016677,0
 .,0.00088459,0.00055661,0.,0.00024510,0.00058393,0.,-0.00302029,0.0011
 0234,0.,0.00239804,-0.01119144,0.,-0.00930503,-0.33541837,0.,-0.000011
 34,-0.00012023,0.,0.00014597,-0.00066921,0.,0.01038277,0.35668250,0.,0
 .,-0.00002218,0.,0.,0.00000749,0.,0.,0.00001636,0.,0.,-0.00014507,0.,0
 .,0.00010635,0.,0.,-0.00014136,0.,0.,0.00000173,0.,0.,0.00002123,0.,0.
 ,-0.00001328,0.,0.,0.00001267,0.,0.,0.00019774,0.,0.,0.00429526,0.,0.,
 0.00284570,0.,0.,-0.00257747,0.,0.,0.00026289,0.,0.,0.00022285,0.,0.,-
 0.00019210,0.,0.,0.00846784,0.,0.,0.00363301,0.,0.,-0.03535380,0.,0.,-
 0.00137646,0.,0.,0.00031581,0.,0.,0.02462337,-0.00003695,-0.00008585,0
 .,-0.00011379,0.00001876,0.,0.00008165,-0.00003120,0.,-0.00006940,-0.0
 0011692,0.,0.00001901,0.00017827,0.,-0.00047736,-0.00029746,0.,-0.0000
 1558,0.00000524,0.,-0.00000112,0.00001436,0.,-0.00002749,0.00000655,0.
 ,0.00000423,-0.00001933,0.,0.00027276,0.00005074,0.,-0.00007842,-0.000
 53852,0.,-0.00245725,-0.00433510,0.,-0.00047121,0.00132856,0.,-0.00002
 185,0.00004621,0.,-0.00001001,-0.00006665,0.,0.00131640,-0.00079794,0.
 ,0.00455400,-0.00303710,0.,-0.26286181,0.12397093,0.,-0.01954150,0.017
 30536,0.,0.00010927,-0.00019824,0.,0.00069255,0.00041391,0.,0.00102439
 ,-0.00023417,0.,0.27810949,-0.00003977,-0.00007774,0.,-0.00004340,0.00
 008211,0.,0.00009916,0.00002085,0.,-0.00014604,-0.00016007,0.,0.000049
 10,0.00005785,0.,-0.00031653,-0.00001553,0.,0.00000524,-0.00000241,0.,
 -0.00001053,0.00000306,0.,-0.00000426,0.00000634,0.,0.00000831,0.00000
 526,0.,0.00033710,0.00014523,0.,-0.00107834,-0.00034863,0.,-0.00304900
 ,-0.00142731,0.,-0.00014465,0.00072375,0.,-0.00006132,0.00005148,0.,0.
 00001595,-0.00000758,0.,-0.00207642,-0.00564002,0.,0.02859887,-0.01100
 835,0.,0.12469029,-0.13577692,0.,-0.01466131,0.01193465,0.,0.00146178,
 -0.00075838,0.,-0.00038437,0.00110204,0.,0.00033057,0.00094211,0.,-0.1
 3358041,0.14014821,0.,0.,-0.00000679,0.,0.,0.00008884,0.,0.,0.00005856
 ,0.,0.,0.00015850,0.,0.,-0.00007576,0.,0.,-0.00101423,0.,0.,-0.0000193
 2,0.,0.,0.00000173,0.,0.,0.00001731,0.,0.,-0.00001329,0.,0.,-0.0007385
 8,0.,0.,-0.00028160,0.,0.,0.00941098,0.,0.,0.00041325,0.,0.,0.00004487
 ,0.,0.,0.00025971,0.,0.,0.00431533,0.,0.,0.00214405,0.,0.,-0.03582774,
 0.,0.,0.00322982,0.,0.,0.00031614,0.,0.,-0.00233779,0.,0.,-0.00520856,
 0.,0.,0.02506458\\0.,0.00004616,0.,-0.00005380,-0.00003789,0.,-0.00000
 958,-0.00004097,0.,0.00008255,0.00016665,0.,0.00000280,0.00005600,0.,-
 0.00006922,-0.00017196,0.,0.00001716,-0.00000756,0.,0.00001515,0.00001
 204,0.,0.00001640,0.00000597,0.,0.00001604,-0.00000960,0.,-0.00000883,
 -0.00009380,0.,0.00006924,0.00017195,0.,-0.00008257,-0.00016674,0.,0.0
 0000883,0.00009381,0.,-0.00000029,0.00003077,0.,0.00000030,-0.00003072
 ,0.,-0.00000277,-0.00005598,0.,0.00005381,0.00003788,0.,-0.00000005,-0
 .00004617,0.,0.00000956,0.00004101,0.,-0.00001604,0.00000961,0.,-0.000
 01639,-0.00000597,0.,-0.00001515,-0.00001204,0.,-0.00001715,0.00000756
 ,0.\\\@


 FROM THE ASHES OF OUR DESPAIR GROW THE FLOWERS OF TOMORROW.
 Job cpu time:       0 days  1 hours 15 minutes 28.9 seconds.
 File lengths (MBytes):  RWF=    183 Int=      0 D2E=      0 Chk=      6 Scr=      1
 Normal termination of Gaussian 09 at Sat Jun 30 20:35:33 2018.
