 Entering Gaussian System, Link 0=g16
 Input=neoxanthin-s1-geom-freq.com
 Output=neoxanthin-s1-geom-freq.log
 Initial command:
 /usr/local/g16/l1.exe "/home/padawan/israel-mol/neoxanthin/geometria/s1/Gau-47150.inp" -scrdir="/home/padawan/israel-mol/neoxanthin/geometria/s1/"
 Entering Link 1 = /usr/local/g16/l1.exe PID=     47152.
  
 Copyright (c) 1988,1990,1992,1993,1995,1998,2003,2009,2016,
            Gaussian, Inc.  All Rights Reserved.
  
 This is part of the Gaussian(R) 16 program.  It is based on
 the Gaussian(R) 09 system (copyright 2009, Gaussian, Inc.),
 the Gaussian(R) 03 system (copyright 2003, Gaussian, Inc.),
 the Gaussian(R) 98 system (copyright 1998, Gaussian, Inc.),
 the Gaussian(R) 94 system (copyright 1995, Gaussian, Inc.),
 the Gaussian 92(TM) system (copyright 1992, Gaussian, Inc.),
 the Gaussian 90(TM) system (copyright 1990, Gaussian, Inc.),
 the Gaussian 88(TM) system (copyright 1988, Gaussian, Inc.),
 the Gaussian 86(TM) system (copyright 1986, Carnegie Mellon
 University), and the Gaussian 82(TM) system (copyright 1983,
 Carnegie Mellon University). Gaussian is a federally registered
 trademark of Gaussian, Inc.
  
 This software contains proprietary and confidential information,
 including trade secrets, belonging to Gaussian, Inc.
  
 This software is provided under written license and may be
 used, copied, transmitted, or stored only in accord with that
 written license.
  
 The following legend is applicable only to US Government
 contracts under FAR:
  
                    RESTRICTED RIGHTS LEGEND
  
 Use, reproduction and disclosure by the US Government is
 subject to restrictions as set forth in subparagraphs (a)
 and (c) of the Commercial Computer Software - Restricted
 Rights clause in FAR 52.227-19.
  
 Gaussian, Inc.
 340 Quinnipiac St., Bldg. 40, Wallingford CT 06492
  
  
 ---------------------------------------------------------------
 Warning -- This program may not be used in any manner that
 competes with the business of Gaussian, Inc. or will provide
 assistance to any competitor of Gaussian, Inc.  The licensee
 of this program is prohibited from giving any competitor of
 Gaussian, Inc. access to this program.  By using this program,
 the user acknowledges that Gaussian, Inc. is engaged in the
 business of creating and licensing software in the field of
 computational chemistry and represents and warrants to the
 licensee that it is not a competitor of Gaussian, Inc. and that
 it will not use this program in any manner prohibited above.
 ---------------------------------------------------------------
  

 Cite this work as:
 Gaussian 16, Revision A.03,
 M. J. Frisch, G. W. Trucks, H. B. Schlegel, G. E. Scuseria, 
 M. A. Robb, J. R. Cheeseman, G. Scalmani, V. Barone, 
 G. A. Petersson, H. Nakatsuji, X. Li, M. Caricato, A. V. Marenich, 
 J. Bloino, B. G. Janesko, R. Gomperts, B. Mennucci, H. P. Hratchian, 
 J. V. Ortiz, A. F. Izmaylov, J. L. Sonnenberg, D. Williams-Young, 
 F. Ding, F. Lipparini, F. Egidi, J. Goings, B. Peng, A. Petrone, 
 T. Henderson, D. Ranasinghe, V. G. Zakrzewski, J. Gao, N. Rega, 
 G. Zheng, W. Liang, M. Hada, M. Ehara, K. Toyota, R. Fukuda, 
 J. Hasegawa, M. Ishida, T. Nakajima, Y. Honda, O. Kitao, H. Nakai, 
 T. Vreven, K. Throssell, J. A. Montgomery, Jr., J. E. Peralta, 
 F. Ogliaro, M. J. Bearpark, J. J. Heyd, E. N. Brothers, K. N. Kudin, 
 V. N. Staroverov, T. A. Keith, R. Kobayashi, J. Normand, 
 K. Raghavachari, A. P. Rendell, J. C. Burant, S. S. Iyengar, 
 J. Tomasi, M. Cossi, J. M. Millam, M. Klene, C. Adamo, R. Cammi, 
 J. W. Ochterski, R. L. Martin, K. Morokuma, O. Farkas, 
 J. B. Foresman, and D. J. Fox, Gaussian, Inc., Wallingford CT, 2016.
 
 ******************************************
 Gaussian 16:  ES64L-G16RevA.03 25-Dec-2016
                23-Jul-2019 
 ******************************************
 %NProcShared=4
 Will use up to    4 processors via shared memory.
 %Chk=neoxanthin-s1-geom-freq.chk
 %Mem=6GB
 -----------------------------------------------------------
 #n CAM-B3LYP/6-31G(d,p) Opt=Restart Freq=savenormalmodes Td
 -----------------------------------------------------------
 99/5=4/99;
 Restoring state from the checkpoint file "neoxanthin-s1-geom-freq.chk".
 ONIOM results not found on unit 2.
 Title:  neoxanthin-s1-geom-freq
 Route:  #n CAM-B3LYP/6-31G(d,p) Opt Freq=savenormalmodes td


 IT IS BY LOGIC THAT WE PROVE, BUT BY INTUITION THAT WE DISCOVER.
     -- J.H.POINCARE (1854-1912)
 Job cpu time:       0 days  0 hours  0 minutes  3.3 seconds.
 Elapsed time:       0 days  0 hours  0 minutes  1.0 seconds.
 File lengths (MBytes):  RWF=    148 Int=      0 D2E=      0 Chk=    420 Scr=      1
 Normal termination of Gaussian 16 at Tue Jul 23 01:11:31 2019.
 Link1:  Proceeding to internal job step number  2.
 ----------------------------------------------------------------------
 #N Geom=AllCheck Guess=TCheck SCRF=Check GenChk RCAM-B3LYP TD(FC,Read)
 /6-31G(d,p) Freq
 ----------------------------------------------------------------------
 1/10=4,29=7,30=1,38=1,40=1/1,3;
 2/12=2,40=1/2;
 3/5=1,6=6,7=101,11=1,14=-4,25=1,30=1,70=2,71=2,74=-40,116=1,140=1/1,2,3,8;
 4/5=101/1;
 5/5=2,38=6,98=1/2;
 8/6=1,10=2/1;
 9/15=3,42=1,49=3,70=2/14;
 10/5=2004,20=4/2;
 11/6=1,8=1,12=-1,16=1,42=3/1,2,10;
 10/6=3,21=1/2,14;
 6/7=2,8=2,9=2,10=2/1;
 7/8=1,10=1,12=6,13=8,25=1,44=2,92=1/1,2,3,16;
 1/10=4,30=1/3;
 99//99;
 Structure from the checkpoint file:  "neoxanthin-s1-geom-freq.chk"
 -----------------------
 neoxanthin-s1-geom-freq
 -----------------------
 Charge =  0 Multiplicity = 1
 Redundant internal coordinates found in file.  (old form).
 O,0,11.7289354287,1.0112278454,1.0826634074
 O,0,12.9918198498,-2.8933370998,0.2483340696
 O,0,-10.599033823,0.3896892687,2.3596664795
 O,0,-14.5017401389,-0.6734751161,0.7298563657
 C,0,11.0460433607,0.0039729929,0.3235971206
 C,0,11.6665279593,-0.3020704794,1.6497114633
 C,0,11.7719107348,-0.3216951995,-1.0016675624
 C,0,13.0237160881,-0.9809379426,1.7509627553
 C,0,13.2565382378,-0.6508572707,-0.7329149676
 C,0,13.5242843784,-1.5861537449,0.4431677514
 C,0,10.8262030338,-0.3990159165,2.8998896885
 C,0,9.5743927522,0.2400185593,0.2355364645
 C,0,11.0838123696,-1.461140803,-1.7700463845
 C,0,11.7137296009,0.940750553,-1.876624285
 C,0,8.6391314743,-0.7265744418,0.326810419
 C,0,7.2039149636,-0.5893767016,0.2038288755
 C,0,6.357908826,-1.7524773549,0.6490303226
 C,0,6.6226576536,0.553357139,-0.2994014991
 C,0,5.2409986194,0.7973632165,-0.4085395036
 C,0,-11.9281086409,-0.6527766811,-1.082940969
 C,0,-11.6647781137,0.2774663171,1.4193386606
 C,0,-12.6835200154,-1.841216603,-0.453167279
 C,0,-13.39335858,-1.5582740948,0.8692966112
 C,0,-12.4343215053,-0.9623201722,1.8864357724
 C,0,-11.0942886295,0.0536767821,-0.0008248785
 C,0,-11.0130189542,-1.2008990598,-2.1847311708
 C,0,-12.9054504795,0.3418286986,-1.7392152146
 C,0,-12.5068545969,1.5540029769,1.4970830069
 C,0,4.7209944219,1.9670124252,-0.9463850304
 C,0,-9.8893380389,0.4941301682,-0.235686261
 C,0,3.3660116115,2.3143245758,-1.0988216096
 C,0,-8.6511303508,0.9305855449,-0.380250888
 C,0,3.037123623,3.6516474648,-1.7056620698
 C,0,2.3243599299,1.4581597613,-0.7050962009
 C,0,-7.4571645093,0.1663855289,-0.048654963
 C,0,-7.6615601211,-1.1817012925,0.5776062695
 C,0,-6.2364996565,0.7209418663,-0.3068670406
 C,0,0.9634556134,1.7243967312,-0.8159220727
 C,0,-4.9566210678,0.1527729336,-0.062006697
 C,0,-0.0346232636,0.8388775654,-0.4099343212
 C,0,-3.7855149096,0.8015082779,-0.3621376838
 C,0,-1.3987080632,1.1142250849,-0.5226671819
 C,0,-2.472906828,0.3093734045,-0.1520300999
 C,0,-2.2897416251,-1.0523213431,0.4579663867
 H,0,12.9951503497,-1.7739703602,2.5047358419
 H,0,13.7289501353,-0.2232364608,2.1097363254
 H,0,13.688121059,-1.0847942771,-1.6403246898
 H,0,13.7932981424,0.2829314387,-0.5348106052
 H,0,14.6048541095,-1.7430444398,0.518814226
 H,0,10.52045088,-1.4332182139,3.0872645359
 H,0,11.414167779,-0.0645583923,3.7604716659
 H,0,9.933599556,0.2197298731,2.824094575
 H,0,9.288051529,1.280019883,0.0994965811
 H,0,10.0611282842,-1.1924545706,-2.0398231527
 H,0,11.6363344806,-1.6594078738,-2.6927721954
 H,0,11.0527028882,-2.4000544938,-1.2159179102
 H,0,12.1285972561,1.7990239708,-1.3426894179
 H,0,12.2918691438,0.7926532186,-2.7938635712
 H,0,10.6853237934,1.1763179931,-2.1656620898
 H,0,12.05009966,-2.8631022966,0.4504991642
 H,0,8.9895032448,-1.7377987584,0.5339664563
 H,0,5.7875140511,-1.5129847997,1.555305904
 H,0,5.6300536071,-2.0443300199,-0.1157296265
 H,0,6.9723694932,-2.626449851,0.8750094092
 H,0,7.2799328948,1.3416171333,-0.659898159
 H,0,4.5603555478,0.0331795399,-0.0471839736
 H,0,-13.4035385716,-2.2331382179,-1.1841486633
 H,0,-11.9682850121,-2.6515933311,-0.2675947487
 H,0,-13.7511659935,-2.5176965758,1.2725211209
 H,0,-12.975151858,-0.7214583836,2.8058486713
 H,0,-11.6873319239,-1.7212590531,2.1377824294
 H,0,-11.6063739038,-1.7314719199,-2.9358212485
 H,0,-10.473947922,-0.3946898462,-2.6878448517
 H,0,-10.2737953874,-1.896664512,-1.7789215642
 H,0,-13.6433021281,0.7212371516,-1.0352475639
 H,0,-12.3567123314,1.1858341124,-2.1654780992
 H,0,-13.4435950383,-0.1547666409,-2.5542685432
 H,0,-12.7775616564,1.7288129198,2.5415149936
 H,0,-11.9252334114,2.409589415,1.1399674245
 H,0,-13.4238015165,1.4787189935,0.9155036523
 H,0,5.44721803,2.7024366455,-1.2881834341
 H,0,-10.0183906718,1.1014425379,2.0588128473
 H,0,-15.1111185119,-1.0567518855,0.0881125521
 H,0,-8.4955950939,1.9342561911,-0.775980426
 H,0,2.4399531743,3.542208388,-2.6180398328
 H,0,2.4519704346,4.2714381953,-1.0167620898
 H,0,3.9427667115,4.2031407539,-1.9632853937
 H,0,2.5927534386,0.4976325213,-0.2738596676
 H,0,-6.74263726,-1.5977316886,0.9894991081
 H,0,-8.403687725,-1.1104576772,1.3786350608
 H,0,-8.0566715634,-1.894357532,-0.1556548569
 H,0,-6.2338303933,1.7134744392,-0.7564423511
 H,0,0.6456946412,2.673796623,-1.2409720329
 H,0,-4.9074767839,-0.8384587332,0.3768117792
 H,0,0.2868630917,-0.1090071146,0.013754698
 H,0,-3.8632121537,1.793060892,-0.8063773893
 H,0,-1.6547772591,2.080853898,-0.9551069737
 H,0,-1.2412464869,-1.319095178,0.5812353398
 H,0,-2.7630713872,-1.1047859698,1.444141109
 H,0,-2.7573640816,-1.8240920258,-0.1627564052
 Recover connectivity data from disk.

 GradGradGradGradGradGradGradGradGradGradGradGradGradGradGradGradGradGrad
 Berny optimization.
 Initialization pass.
                           ----------------------------
                           !    Initial Parameters    !
                           ! (Angstroms and Degrees)  !
 --------------------------                            --------------------------
 ! Name  Definition              Value          Derivative Info.                !
 --------------------------------------------------------------------------------
 ! R1    R(1,5)                  1.4343         calculate D2E/DX2 analytically  !
 ! R2    R(1,6)                  1.4318         calculate D2E/DX2 analytically  !
 ! R3    R(2,10)                 1.4249         calculate D2E/DX2 analytically  !
 ! R4    R(2,60)                 0.9637         calculate D2E/DX2 analytically  !
 ! R5    R(3,21)                 1.4257         calculate D2E/DX2 analytically  !
 ! R6    R(3,82)                 0.9666         calculate D2E/DX2 analytically  !
 ! R7    R(4,23)                 1.4251         calculate D2E/DX2 analytically  !
 ! R8    R(4,83)                 0.9644         calculate D2E/DX2 analytically  !
 ! R9    R(5,6)                  1.4957         calculate D2E/DX2 analytically  !
 ! R10   R(5,7)                  1.5457         calculate D2E/DX2 analytically  !
 ! R11   R(5,12)                 1.4931         calculate D2E/DX2 analytically  !
 ! R12   R(6,8)                  1.5209         calculate D2E/DX2 analytically  !
 ! R13   R(6,11)                 1.5095         calculate D2E/DX2 analytically  !
 ! R14   R(7,9)                  1.5442         calculate D2E/DX2 analytically  !
 ! R15   R(7,13)                 1.537          calculate D2E/DX2 analytically  !
 ! R16   R(7,14)                 1.5371         calculate D2E/DX2 analytically  !
 ! R17   R(8,10)                 1.5255         calculate D2E/DX2 analytically  !
 ! R18   R(8,45)                 1.0945         calculate D2E/DX2 analytically  !
 ! R19   R(8,46)                 1.0955         calculate D2E/DX2 analytically  !
 ! R20   R(9,10)                 1.5263         calculate D2E/DX2 analytically  !
 ! R21   R(9,47)                 1.0945         calculate D2E/DX2 analytically  !
 ! R22   R(9,48)                 1.0951         calculate D2E/DX2 analytically  !
 ! R23   R(10,49)                1.0945         calculate D2E/DX2 analytically  !
 ! R24   R(11,50)                1.0946         calculate D2E/DX2 analytically  !
 ! R25   R(11,51)                1.0946         calculate D2E/DX2 analytically  !
 ! R26   R(11,52)                1.0887         calculate D2E/DX2 analytically  !
 ! R27   R(12,15)                1.3481         calculate D2E/DX2 analytically  !
 ! R28   R(12,53)                1.0872         calculate D2E/DX2 analytically  !
 ! R29   R(13,54)                1.0913         calculate D2E/DX2 analytically  !
 ! R30   R(13,55)                1.0936         calculate D2E/DX2 analytically  !
 ! R31   R(13,56)                1.0907         calculate D2E/DX2 analytically  !
 ! R32   R(14,57)                1.0926         calculate D2E/DX2 analytically  !
 ! R33   R(14,58)                1.0943         calculate D2E/DX2 analytically  !
 ! R34   R(14,59)                1.0939         calculate D2E/DX2 analytically  !
 ! R35   R(15,16)                1.447          calculate D2E/DX2 analytically  !
 ! R36   R(15,61)                1.0901         calculate D2E/DX2 analytically  !
 ! R37   R(16,17)                1.5056         calculate D2E/DX2 analytically  !
 ! R38   R(16,18)                1.3773         calculate D2E/DX2 analytically  !
 ! R39   R(17,62)                1.0973         calculate D2E/DX2 analytically  !
 ! R40   R(17,63)                1.0954         calculate D2E/DX2 analytically  !
 ! R41   R(17,64)                1.092          calculate D2E/DX2 analytically  !
 ! R42   R(18,19)                1.4073         calculate D2E/DX2 analytically  !
 ! R43   R(18,65)                1.0878         calculate D2E/DX2 analytically  !
 ! R44   R(19,29)                1.3884         calculate D2E/DX2 analytically  !
 ! R45   R(19,66)                1.0853         calculate D2E/DX2 analytically  !
 ! R46   R(20,22)                1.5426         calculate D2E/DX2 analytically  !
 ! R47   R(20,25)                1.538          calculate D2E/DX2 analytically  !
 ! R48   R(20,26)                1.5335         calculate D2E/DX2 analytically  !
 ! R49   R(20,27)                1.5411         calculate D2E/DX2 analytically  !
 ! R50   R(21,24)                1.5321         calculate D2E/DX2 analytically  !
 ! R51   R(21,25)                1.5467         calculate D2E/DX2 analytically  !
 ! R52   R(21,28)                1.5312         calculate D2E/DX2 analytically  !
 ! R53   R(22,23)                1.5274         calculate D2E/DX2 analytically  !
 ! R54   R(22,67)                1.0983         calculate D2E/DX2 analytically  !
 ! R55   R(22,68)                1.0967         calculate D2E/DX2 analytically  !
 ! R56   R(23,24)                1.5197         calculate D2E/DX2 analytically  !
 ! R57   R(23,69)                1.1005         calculate D2E/DX2 analytically  !
 ! R58   R(24,70)                1.0935         calculate D2E/DX2 analytically  !
 ! R59   R(24,71)                1.0941         calculate D2E/DX2 analytically  !
 ! R60   R(25,30)                1.3042         calculate D2E/DX2 analytically  !
 ! R61   R(26,72)                1.0944         calculate D2E/DX2 analytically  !
 ! R62   R(26,73)                1.0926         calculate D2E/DX2 analytically  !
 ! R63   R(26,74)                1.0933         calculate D2E/DX2 analytically  !
 ! R64   R(27,75)                1.0881         calculate D2E/DX2 analytically  !
 ! R65   R(27,76)                1.0932         calculate D2E/DX2 analytically  !
 ! R66   R(27,77)                1.0957         calculate D2E/DX2 analytically  !
 ! R67   R(28,78)                1.093          calculate D2E/DX2 analytically  !
 ! R68   R(28,79)                1.0945         calculate D2E/DX2 analytically  !
 ! R69   R(28,80)                1.0884         calculate D2E/DX2 analytically  !
 ! R70   R(29,31)                1.4071         calculate D2E/DX2 analytically  !
 ! R71   R(29,81)                1.0886         calculate D2E/DX2 analytically  !
 ! R72   R(30,32)                1.3208         calculate D2E/DX2 analytically  !
 ! R73   R(31,33)                1.5049         calculate D2E/DX2 analytically  !
 ! R74   R(31,34)                1.4047         calculate D2E/DX2 analytically  !
 ! R75   R(32,35)                1.4559         calculate D2E/DX2 analytically  !
 ! R76   R(32,84)                1.09           calculate D2E/DX2 analytically  !
 ! R77   R(33,85)                1.0959         calculate D2E/DX2 analytically  !
 ! R78   R(33,86)                1.096          calculate D2E/DX2 analytically  !
 ! R79   R(33,87)                1.0912         calculate D2E/DX2 analytically  !
 ! R80   R(34,38)                1.3911         calculate D2E/DX2 analytically  !
 ! R81   R(34,88)                1.0866         calculate D2E/DX2 analytically  !
 ! R82   R(35,36)                1.5004         calculate D2E/DX2 analytically  !
 ! R83   R(35,37)                1.3654         calculate D2E/DX2 analytically  !
 ! R84   R(36,89)                1.0896         calculate D2E/DX2 analytically  !
 ! R85   R(36,90)                1.0943         calculate D2E/DX2 analytically  !
 ! R86   R(36,91)                1.0962         calculate D2E/DX2 analytically  !
 ! R87   R(37,39)                1.4216         calculate D2E/DX2 analytically  !
 ! R88   R(37,92)                1.0896         calculate D2E/DX2 analytically  !
 ! R89   R(38,40)                1.3947         calculate D2E/DX2 analytically  !
 ! R90   R(38,93)                1.0877         calculate D2E/DX2 analytically  !
 ! R91   R(39,41)                1.372          calculate D2E/DX2 analytically  !
 ! R92   R(39,94)                1.0851         calculate D2E/DX2 analytically  !
 ! R93   R(40,42)                1.3962         calculate D2E/DX2 analytically  !
 ! R94   R(40,95)                1.0869         calculate D2E/DX2 analytically  !
 ! R95   R(41,43)                1.4175         calculate D2E/DX2 analytically  !
 ! R96   R(41,96)                1.0893         calculate D2E/DX2 analytically  !
 ! R97   R(42,43)                1.3925         calculate D2E/DX2 analytically  !
 ! R98   R(42,97)                1.0895         calculate D2E/DX2 analytically  !
 ! R99   R(43,44)                1.5033         calculate D2E/DX2 analytically  !
 ! R100  R(44,98)                1.0889         calculate D2E/DX2 analytically  !
 ! R101  R(44,99)                1.0951         calculate D2E/DX2 analytically  !
 ! R102  R(44,100)               1.0953         calculate D2E/DX2 analytically  !
 ! A1    A(10,2,60)            107.922          calculate D2E/DX2 analytically  !
 ! A2    A(21,3,82)            107.5614         calculate D2E/DX2 analytically  !
 ! A3    A(23,4,83)            108.0478         calculate D2E/DX2 analytically  !
 ! A4    A(1,5,7)              112.218          calculate D2E/DX2 analytically  !
 ! A5    A(1,5,12)             112.9228         calculate D2E/DX2 analytically  !
 ! A6    A(6,5,7)              121.4818         calculate D2E/DX2 analytically  !
 ! A7    A(6,5,12)             119.5725         calculate D2E/DX2 analytically  !
 ! A8    A(7,5,12)             116.462          calculate D2E/DX2 analytically  !
 ! A9    A(1,6,8)              113.3832         calculate D2E/DX2 analytically  !
 ! A10   A(1,6,11)             114.2783         calculate D2E/DX2 analytically  !
 ! A11   A(5,6,8)              121.3685         calculate D2E/DX2 analytically  !
 ! A12   A(5,6,11)             121.0978         calculate D2E/DX2 analytically  !
 ! A13   A(8,6,11)             114.3921         calculate D2E/DX2 analytically  !
 ! A14   A(5,7,9)              110.3139         calculate D2E/DX2 analytically  !
 ! A15   A(5,7,13)             111.999          calculate D2E/DX2 analytically  !
 ! A16   A(5,7,14)             107.2907         calculate D2E/DX2 analytically  !
 ! A17   A(9,7,13)             111.0634         calculate D2E/DX2 analytically  !
 ! A18   A(9,7,14)             108.0906         calculate D2E/DX2 analytically  !
 ! A19   A(13,7,14)            107.9009         calculate D2E/DX2 analytically  !
 ! A20   A(6,8,10)             114.3827         calculate D2E/DX2 analytically  !
 ! A21   A(6,8,45)             110.2418         calculate D2E/DX2 analytically  !
 ! A22   A(6,8,46)             106.7105         calculate D2E/DX2 analytically  !
 ! A23   A(10,8,45)            108.1507         calculate D2E/DX2 analytically  !
 ! A24   A(10,8,46)            110.1153         calculate D2E/DX2 analytically  !
 ! A25   A(45,8,46)            107.0014         calculate D2E/DX2 analytically  !
 ! A26   A(7,9,10)             115.6813         calculate D2E/DX2 analytically  !
 ! A27   A(7,9,47)             108.6216         calculate D2E/DX2 analytically  !
 ! A28   A(7,9,48)             108.7199         calculate D2E/DX2 analytically  !
 ! A29   A(10,9,47)            109.0686         calculate D2E/DX2 analytically  !
 ! A30   A(10,9,48)            107.2856         calculate D2E/DX2 analytically  !
 ! A31   A(47,9,48)            107.1432         calculate D2E/DX2 analytically  !
 ! A32   A(2,10,8)             111.0123         calculate D2E/DX2 analytically  !
 ! A33   A(2,10,9)             113.0328         calculate D2E/DX2 analytically  !
 ! A34   A(2,10,49)            104.2931         calculate D2E/DX2 analytically  !
 ! A35   A(8,10,9)             111.094          calculate D2E/DX2 analytically  !
 ! A36   A(8,10,49)            108.7578         calculate D2E/DX2 analytically  !
 ! A37   A(9,10,49)            108.3172         calculate D2E/DX2 analytically  !
 ! A38   A(6,11,50)            110.9748         calculate D2E/DX2 analytically  !
 ! A39   A(6,11,51)            109.4204         calculate D2E/DX2 analytically  !
 ! A40   A(6,11,52)            111.2389         calculate D2E/DX2 analytically  !
 ! A41   A(50,11,51)           107.7067         calculate D2E/DX2 analytically  !
 ! A42   A(50,11,52)           108.6548         calculate D2E/DX2 analytically  !
 ! A43   A(51,11,52)           108.7517         calculate D2E/DX2 analytically  !
 ! A44   A(5,12,15)            124.5045         calculate D2E/DX2 analytically  !
 ! A45   A(5,12,53)            114.7206         calculate D2E/DX2 analytically  !
 ! A46   A(15,12,53)           120.7712         calculate D2E/DX2 analytically  !
 ! A47   A(7,13,54)            111.1385         calculate D2E/DX2 analytically  !
 ! A48   A(7,13,55)            109.2705         calculate D2E/DX2 analytically  !
 ! A49   A(7,13,56)            113.3895         calculate D2E/DX2 analytically  !
 ! A50   A(54,13,55)           108.0306         calculate D2E/DX2 analytically  !
 ! A51   A(54,13,56)           108.1089         calculate D2E/DX2 analytically  !
 ! A52   A(55,13,56)           106.6789         calculate D2E/DX2 analytically  !
 ! A53   A(7,14,57)            110.6475         calculate D2E/DX2 analytically  !
 ! A54   A(7,14,58)            110.2409         calculate D2E/DX2 analytically  !
 ! A55   A(7,14,59)            111.2753         calculate D2E/DX2 analytically  !
 ! A56   A(57,14,58)           108.3793         calculate D2E/DX2 analytically  !
 ! A57   A(57,14,59)           108.4769         calculate D2E/DX2 analytically  !
 ! A58   A(58,14,59)           107.7191         calculate D2E/DX2 analytically  !
 ! A59   A(12,15,16)           127.9071         calculate D2E/DX2 analytically  !
 ! A60   A(12,15,61)           117.0664         calculate D2E/DX2 analytically  !
 ! A61   A(16,15,61)           115.0188         calculate D2E/DX2 analytically  !
 ! A62   A(15,16,17)           117.3203         calculate D2E/DX2 analytically  !
 ! A63   A(15,16,18)           121.8916         calculate D2E/DX2 analytically  !
 ! A64   A(17,16,18)           120.7881         calculate D2E/DX2 analytically  !
 ! A65   A(16,17,62)           111.5747         calculate D2E/DX2 analytically  !
 ! A66   A(16,17,63)           111.8867         calculate D2E/DX2 analytically  !
 ! A67   A(16,17,64)           111.3028         calculate D2E/DX2 analytically  !
 ! A68   A(62,17,63)           106.821          calculate D2E/DX2 analytically  !
 ! A69   A(62,17,64)           107.2334         calculate D2E/DX2 analytically  !
 ! A70   A(63,17,64)           107.7666         calculate D2E/DX2 analytically  !
 ! A71   A(16,18,19)           125.9119         calculate D2E/DX2 analytically  !
 ! A72   A(16,18,65)           117.8598         calculate D2E/DX2 analytically  !
 ! A73   A(19,18,65)           116.2237         calculate D2E/DX2 analytically  !
 ! A74   A(18,19,29)           122.9437         calculate D2E/DX2 analytically  !
 ! A75   A(18,19,66)           117.8936         calculate D2E/DX2 analytically  !
 ! A76   A(29,19,66)           119.1615         calculate D2E/DX2 analytically  !
 ! A77   A(22,20,25)           109.3981         calculate D2E/DX2 analytically  !
 ! A78   A(22,20,26)           108.0689         calculate D2E/DX2 analytically  !
 ! A79   A(22,20,27)           111.1306         calculate D2E/DX2 analytically  !
 ! A80   A(25,20,26)           110.2536         calculate D2E/DX2 analytically  !
 ! A81   A(25,20,27)           110.3035         calculate D2E/DX2 analytically  !
 ! A82   A(26,20,27)           107.6462         calculate D2E/DX2 analytically  !
 ! A83   A(3,21,24)            103.773          calculate D2E/DX2 analytically  !
 ! A84   A(3,21,25)            109.9535         calculate D2E/DX2 analytically  !
 ! A85   A(3,21,28)            108.1785         calculate D2E/DX2 analytically  !
 ! A86   A(24,21,25)           110.3708         calculate D2E/DX2 analytically  !
 ! A87   A(24,21,28)           112.5133         calculate D2E/DX2 analytically  !
 ! A88   A(25,21,28)           111.7199         calculate D2E/DX2 analytically  !
 ! A89   A(20,22,23)           115.9988         calculate D2E/DX2 analytically  !
 ! A90   A(20,22,67)           108.9183         calculate D2E/DX2 analytically  !
 ! A91   A(20,22,68)           108.602          calculate D2E/DX2 analytically  !
 ! A92   A(23,22,67)           109.7359         calculate D2E/DX2 analytically  !
 ! A93   A(23,22,68)           107.0661         calculate D2E/DX2 analytically  !
 ! A94   A(67,22,68)           106.0502         calculate D2E/DX2 analytically  !
 ! A95   A(4,23,22)            113.0644         calculate D2E/DX2 analytically  !
 ! A96   A(4,23,24)            108.2305         calculate D2E/DX2 analytically  !
 ! A97   A(4,23,69)            108.9207         calculate D2E/DX2 analytically  !
 ! A98   A(22,23,24)           111.0309         calculate D2E/DX2 analytically  !
 ! A99   A(22,23,69)           107.8695         calculate D2E/DX2 analytically  !
 ! A100  A(24,23,69)           107.5674         calculate D2E/DX2 analytically  !
 ! A101  A(21,24,23)           115.483          calculate D2E/DX2 analytically  !
 ! A102  A(21,24,70)           109.0563         calculate D2E/DX2 analytically  !
 ! A103  A(21,24,71)           106.7627         calculate D2E/DX2 analytically  !
 ! A104  A(23,24,70)           109.6939         calculate D2E/DX2 analytically  !
 ! A105  A(23,24,71)           108.2149         calculate D2E/DX2 analytically  !
 ! A106  A(70,24,71)           107.2948         calculate D2E/DX2 analytically  !
 ! A107  A(20,25,21)           120.8319         calculate D2E/DX2 analytically  !
 ! A108  A(20,25,30)           121.9586         calculate D2E/DX2 analytically  !
 ! A109  A(21,25,30)           117.2085         calculate D2E/DX2 analytically  !
 ! A110  A(20,26,72)           110.0498         calculate D2E/DX2 analytically  !
 ! A111  A(20,26,73)           111.1935         calculate D2E/DX2 analytically  !
 ! A112  A(20,26,74)           111.3619         calculate D2E/DX2 analytically  !
 ! A113  A(72,26,73)           108.0119         calculate D2E/DX2 analytically  !
 ! A114  A(72,26,74)           108.2287         calculate D2E/DX2 analytically  !
 ! A115  A(73,26,74)           107.8739         calculate D2E/DX2 analytically  !
 ! A116  A(20,27,75)           112.3068         calculate D2E/DX2 analytically  !
 ! A117  A(20,27,76)           110.2407         calculate D2E/DX2 analytically  !
 ! A118  A(20,27,77)           109.6176         calculate D2E/DX2 analytically  !
 ! A119  A(75,27,76)           108.8708         calculate D2E/DX2 analytically  !
 ! A120  A(75,27,77)           107.8334         calculate D2E/DX2 analytically  !
 ! A121  A(76,27,77)           107.8417         calculate D2E/DX2 analytically  !
 ! A122  A(21,28,78)           108.545          calculate D2E/DX2 analytically  !
 ! A123  A(21,28,79)           110.0535         calculate D2E/DX2 analytically  !
 ! A124  A(21,28,80)           112.2406         calculate D2E/DX2 analytically  !
 ! A125  A(78,28,79)           108.5651         calculate D2E/DX2 analytically  !
 ! A126  A(78,28,80)           108.2395         calculate D2E/DX2 analytically  !
 ! A127  A(79,28,80)           109.1121         calculate D2E/DX2 analytically  !
 ! A128  A(19,29,31)           127.6304         calculate D2E/DX2 analytically  !
 ! A129  A(19,29,81)           116.1603         calculate D2E/DX2 analytically  !
 ! A130  A(31,29,81)           116.2091         calculate D2E/DX2 analytically  !
 ! A131  A(29,31,33)           118.2601         calculate D2E/DX2 analytically  !
 ! A132  A(29,31,34)           122.2288         calculate D2E/DX2 analytically  !
 ! A133  A(33,31,34)           119.5111         calculate D2E/DX2 analytically  !
 ! A134  A(30,32,35)           124.7807         calculate D2E/DX2 analytically  !
 ! A135  A(30,32,84)           118.5397         calculate D2E/DX2 analytically  !
 ! A136  A(35,32,84)           116.6795         calculate D2E/DX2 analytically  !
 ! A137  A(31,33,85)           111.472          calculate D2E/DX2 analytically  !
 ! A138  A(31,33,86)           111.4539         calculate D2E/DX2 analytically  !
 ! A139  A(31,33,87)           111.2805         calculate D2E/DX2 analytically  !
 ! A140  A(85,33,86)           106.7891         calculate D2E/DX2 analytically  !
 ! A141  A(85,33,87)           107.8283         calculate D2E/DX2 analytically  !
 ! A142  A(86,33,87)           107.8012         calculate D2E/DX2 analytically  !
 ! A143  A(31,34,38)           125.9074         calculate D2E/DX2 analytically  !
 ! A144  A(31,34,88)           117.8324         calculate D2E/DX2 analytically  !
 ! A145  A(38,34,88)           116.2602         calculate D2E/DX2 analytically  !
 ! A146  A(32,35,36)           117.0626         calculate D2E/DX2 analytically  !
 ! A147  A(32,35,37)           118.4847         calculate D2E/DX2 analytically  !
 ! A148  A(36,35,37)           124.4467         calculate D2E/DX2 analytically  !
 ! A149  A(35,36,89)           112.7032         calculate D2E/DX2 analytically  !
 ! A150  A(35,36,90)           109.8415         calculate D2E/DX2 analytically  !
 ! A151  A(35,36,91)           110.7327         calculate D2E/DX2 analytically  !
 ! A152  A(89,36,90)           108.6691         calculate D2E/DX2 analytically  !
 ! A153  A(89,36,91)           107.9762         calculate D2E/DX2 analytically  !
 ! A154  A(90,36,91)           106.7102         calculate D2E/DX2 analytically  !
 ! A155  A(35,37,39)           127.5897         calculate D2E/DX2 analytically  !
 ! A156  A(35,37,92)           116.7561         calculate D2E/DX2 analytically  !
 ! A157  A(39,37,92)           115.6538         calculate D2E/DX2 analytically  !
 ! A158  A(34,38,40)           123.7371         calculate D2E/DX2 analytically  !
 ! A159  A(34,38,93)           118.9465         calculate D2E/DX2 analytically  !
 ! A160  A(40,38,93)           117.3164         calculate D2E/DX2 analytically  !
 ! A161  A(37,39,41)           122.8082         calculate D2E/DX2 analytically  !
 ! A162  A(37,39,94)           118.3932         calculate D2E/DX2 analytically  !
 ! A163  A(41,39,94)           118.7979         calculate D2E/DX2 analytically  !
 ! A164  A(38,40,42)           123.3993         calculate D2E/DX2 analytically  !
 ! A165  A(38,40,95)           117.0985         calculate D2E/DX2 analytically  !
 ! A166  A(42,40,95)           119.5023         calculate D2E/DX2 analytically  !
 ! A167  A(39,41,43)           126.4288         calculate D2E/DX2 analytically  !
 ! A168  A(39,41,96)           117.3056         calculate D2E/DX2 analytically  !
 ! A169  A(43,41,96)           116.2657         calculate D2E/DX2 analytically  !
 ! A170  A(40,42,43)           128.1858         calculate D2E/DX2 analytically  !
 ! A171  A(40,42,97)           115.8917         calculate D2E/DX2 analytically  !
 ! A172  A(43,42,97)           115.9224         calculate D2E/DX2 analytically  !
 ! A173  A(41,43,42)           118.3082         calculate D2E/DX2 analytically  !
 ! A174  A(41,43,44)           119.1739         calculate D2E/DX2 analytically  !
 ! A175  A(42,43,44)           122.5179         calculate D2E/DX2 analytically  !
 ! A176  A(43,44,98)           112.6547         calculate D2E/DX2 analytically  !
 ! A177  A(43,44,99)           110.863          calculate D2E/DX2 analytically  !
 ! A178  A(43,44,100)          110.8725         calculate D2E/DX2 analytically  !
 ! A179  A(98,44,99)           107.6074         calculate D2E/DX2 analytically  !
 ! A180  A(98,44,100)          107.6157         calculate D2E/DX2 analytically  !
 ! A181  A(99,44,100)          106.9811         calculate D2E/DX2 analytically  !
 ! A182  L(25,30,32,73,-1)     183.8083         calculate D2E/DX2 analytically  !
 ! A183  L(25,30,32,73,-2)     181.6581         calculate D2E/DX2 analytically  !
 ! D1    D(60,2,10,8)           45.4321         calculate D2E/DX2 analytically  !
 ! D2    D(60,2,10,9)          -80.176          calculate D2E/DX2 analytically  !
 ! D3    D(60,2,10,49)         162.3901         calculate D2E/DX2 analytically  !
 ! D4    D(82,3,21,24)         173.8475         calculate D2E/DX2 analytically  !
 ! D5    D(82,3,21,25)          55.795          calculate D2E/DX2 analytically  !
 ! D6    D(82,3,21,28)         -66.454          calculate D2E/DX2 analytically  !
 ! D7    D(83,4,23,22)          56.9182         calculate D2E/DX2 analytically  !
 ! D8    D(83,4,23,24)        -179.6523         calculate D2E/DX2 analytically  !
 ! D9    D(83,4,23,69)         -62.9836         calculate D2E/DX2 analytically  !
 ! D10   D(7,5,6,8)             -1.6355         calculate D2E/DX2 analytically  !
 ! D11   D(7,5,6,11)          -160.4767         calculate D2E/DX2 analytically  !
 ! D12   D(12,5,6,8)           159.853          calculate D2E/DX2 analytically  !
 ! D13   D(12,5,6,11)            1.0118         calculate D2E/DX2 analytically  !
 ! D14   D(1,5,7,9)             52.2565         calculate D2E/DX2 analytically  !
 ! D15   D(1,5,7,13)           176.5122         calculate D2E/DX2 analytically  !
 ! D16   D(1,5,7,14)           -65.2611         calculate D2E/DX2 analytically  !
 ! D17   D(6,5,7,9)            -13.3889         calculate D2E/DX2 analytically  !
 ! D18   D(6,5,7,13)           110.8669         calculate D2E/DX2 analytically  !
 ! D19   D(6,5,7,14)          -130.9064         calculate D2E/DX2 analytically  !
 ! D20   D(12,5,7,9)          -175.4229         calculate D2E/DX2 analytically  !
 ! D21   D(12,5,7,13)          -51.1672         calculate D2E/DX2 analytically  !
 ! D22   D(12,5,7,14)           67.0596         calculate D2E/DX2 analytically  !
 ! D23   D(1,5,12,15)         -139.529          calculate D2E/DX2 analytically  !
 ! D24   D(1,5,12,53)           39.7712         calculate D2E/DX2 analytically  !
 ! D25   D(6,5,12,15)          -73.9213         calculate D2E/DX2 analytically  !
 ! D26   D(6,5,12,53)          105.3789         calculate D2E/DX2 analytically  !
 ! D27   D(7,5,12,15)           88.4739         calculate D2E/DX2 analytically  !
 ! D28   D(7,5,12,53)          -92.2259         calculate D2E/DX2 analytically  !
 ! D29   D(1,6,8,10)           -79.4011         calculate D2E/DX2 analytically  !
 ! D30   D(1,6,8,45)           158.4799         calculate D2E/DX2 analytically  !
 ! D31   D(1,6,8,46)            42.6253         calculate D2E/DX2 analytically  !
 ! D32   D(5,6,8,10)           -13.0292         calculate D2E/DX2 analytically  !
 ! D33   D(5,6,8,45)          -135.1481         calculate D2E/DX2 analytically  !
 ! D34   D(5,6,8,46)           108.9972         calculate D2E/DX2 analytically  !
 ! D35   D(11,6,8,10)          147.1321         calculate D2E/DX2 analytically  !
 ! D36   D(11,6,8,45)           25.0132         calculate D2E/DX2 analytically  !
 ! D37   D(11,6,8,46)          -90.8415         calculate D2E/DX2 analytically  !
 ! D38   D(1,6,11,50)          159.9111         calculate D2E/DX2 analytically  !
 ! D39   D(1,6,11,51)          -81.3686         calculate D2E/DX2 analytically  !
 ! D40   D(1,6,11,52)           38.8117         calculate D2E/DX2 analytically  !
 ! D41   D(5,6,11,50)           93.1781         calculate D2E/DX2 analytically  !
 ! D42   D(5,6,11,51)         -148.1016         calculate D2E/DX2 analytically  !
 ! D43   D(5,6,11,52)          -27.9213         calculate D2E/DX2 analytically  !
 ! D44   D(8,6,11,50)          -67.0424         calculate D2E/DX2 analytically  !
 ! D45   D(8,6,11,51)           51.6779         calculate D2E/DX2 analytically  !
 ! D46   D(8,6,11,52)          171.8583         calculate D2E/DX2 analytically  !
 ! D47   D(5,7,9,10)            44.8099         calculate D2E/DX2 analytically  !
 ! D48   D(5,7,9,47)           167.8048         calculate D2E/DX2 analytically  !
 ! D49   D(5,7,9,48)           -75.9252         calculate D2E/DX2 analytically  !
 ! D50   D(13,7,9,10)          -79.9826         calculate D2E/DX2 analytically  !
 ! D51   D(13,7,9,47)           43.0124         calculate D2E/DX2 analytically  !
 ! D52   D(13,7,9,48)          159.2824         calculate D2E/DX2 analytically  !
 ! D53   D(14,7,9,10)          161.8324         calculate D2E/DX2 analytically  !
 ! D54   D(14,7,9,47)          -75.1726         calculate D2E/DX2 analytically  !
 ! D55   D(14,7,9,48)           41.0974         calculate D2E/DX2 analytically  !
 ! D56   D(5,7,13,54)           61.3156         calculate D2E/DX2 analytically  !
 ! D57   D(5,7,13,55)         -179.5586         calculate D2E/DX2 analytically  !
 ! D58   D(5,7,13,56)          -60.711          calculate D2E/DX2 analytically  !
 ! D59   D(9,7,13,54)         -174.8475         calculate D2E/DX2 analytically  !
 ! D60   D(9,7,13,55)          -55.7217         calculate D2E/DX2 analytically  !
 ! D61   D(9,7,13,56)           63.1259         calculate D2E/DX2 analytically  !
 ! D62   D(14,7,13,54)         -56.5478         calculate D2E/DX2 analytically  !
 ! D63   D(14,7,13,55)          62.578          calculate D2E/DX2 analytically  !
 ! D64   D(14,7,13,56)        -178.5744         calculate D2E/DX2 analytically  !
 ! D65   D(5,7,14,57)           55.1178         calculate D2E/DX2 analytically  !
 ! D66   D(5,7,14,58)          174.9906         calculate D2E/DX2 analytically  !
 ! D67   D(5,7,14,59)          -65.5577         calculate D2E/DX2 analytically  !
 ! D68   D(9,7,14,57)          -63.8416         calculate D2E/DX2 analytically  !
 ! D69   D(9,7,14,58)           56.0312         calculate D2E/DX2 analytically  !
 ! D70   D(9,7,14,59)          175.4829         calculate D2E/DX2 analytically  !
 ! D71   D(13,7,14,57)         175.9702         calculate D2E/DX2 analytically  !
 ! D72   D(13,7,14,58)         -64.157          calculate D2E/DX2 analytically  !
 ! D73   D(13,7,14,59)          55.2947         calculate D2E/DX2 analytically  !
 ! D74   D(6,8,10,2)           -84.5262         calculate D2E/DX2 analytically  !
 ! D75   D(6,8,10,9)            42.1578         calculate D2E/DX2 analytically  !
 ! D76   D(6,8,10,49)          161.2847         calculate D2E/DX2 analytically  !
 ! D77   D(45,8,10,2)           38.7275         calculate D2E/DX2 analytically  !
 ! D78   D(45,8,10,9)          165.4115         calculate D2E/DX2 analytically  !
 ! D79   D(45,8,10,49)         -75.4616         calculate D2E/DX2 analytically  !
 ! D80   D(46,8,10,2)          155.3278         calculate D2E/DX2 analytically  !
 ! D81   D(46,8,10,9)          -77.9882         calculate D2E/DX2 analytically  !
 ! D82   D(46,8,10,49)          41.1387         calculate D2E/DX2 analytically  !
 ! D83   D(7,9,10,2)            64.4985         calculate D2E/DX2 analytically  !
 ! D84   D(7,9,10,8)           -61.0657         calculate D2E/DX2 analytically  !
 ! D85   D(7,9,10,49)          179.5437         calculate D2E/DX2 analytically  !
 ! D86   D(47,9,10,2)          -58.2604         calculate D2E/DX2 analytically  !
 ! D87   D(47,9,10,8)          176.1754         calculate D2E/DX2 analytically  !
 ! D88   D(47,9,10,49)          56.7847         calculate D2E/DX2 analytically  !
 ! D89   D(48,9,10,2)         -173.9944         calculate D2E/DX2 analytically  !
 ! D90   D(48,9,10,8)           60.4414         calculate D2E/DX2 analytically  !
 ! D91   D(48,9,10,49)         -58.9492         calculate D2E/DX2 analytically  !
 ! D92   D(5,12,15,16)        -177.5449         calculate D2E/DX2 analytically  !
 ! D93   D(5,12,15,61)           3.5259         calculate D2E/DX2 analytically  !
 ! D94   D(53,12,15,16)          3.1949         calculate D2E/DX2 analytically  !
 ! D95   D(53,12,15,61)       -175.7343         calculate D2E/DX2 analytically  !
 ! D96   D(12,15,16,17)       -166.5582         calculate D2E/DX2 analytically  !
 ! D97   D(12,15,16,18)         13.4863         calculate D2E/DX2 analytically  !
 ! D98   D(61,15,16,17)         12.3894         calculate D2E/DX2 analytically  !
 ! D99   D(61,15,16,18)       -167.566          calculate D2E/DX2 analytically  !
 ! D100  D(15,16,17,62)        111.0918         calculate D2E/DX2 analytically  !
 ! D101  D(15,16,17,63)       -129.2909         calculate D2E/DX2 analytically  !
 ! D102  D(15,16,17,64)         -8.6531         calculate D2E/DX2 analytically  !
 ! D103  D(18,16,17,62)        -68.9522         calculate D2E/DX2 analytically  !
 ! D104  D(18,16,17,63)         50.6651         calculate D2E/DX2 analytically  !
 ! D105  D(18,16,17,64)        171.3029         calculate D2E/DX2 analytically  !
 ! D106  D(15,16,18,19)       -177.4063         calculate D2E/DX2 analytically  !
 ! D107  D(15,16,18,65)          3.4001         calculate D2E/DX2 analytically  !
 ! D108  D(17,16,18,19)          2.6398         calculate D2E/DX2 analytically  !
 ! D109  D(17,16,18,65)       -176.5539         calculate D2E/DX2 analytically  !
 ! D110  D(16,18,19,29)       -178.9708         calculate D2E/DX2 analytically  !
 ! D111  D(16,18,19,66)          1.4361         calculate D2E/DX2 analytically  !
 ! D112  D(65,18,19,29)          0.2345         calculate D2E/DX2 analytically  !
 ! D113  D(65,18,19,66)       -179.3585         calculate D2E/DX2 analytically  !
 ! D114  D(18,19,29,31)       -179.7955         calculate D2E/DX2 analytically  !
 ! D115  D(18,19,29,81)          0.058          calculate D2E/DX2 analytically  !
 ! D116  D(66,19,29,31)         -0.2073         calculate D2E/DX2 analytically  !
 ! D117  D(66,19,29,81)        179.6462         calculate D2E/DX2 analytically  !
 ! D118  D(25,20,22,23)         46.0927         calculate D2E/DX2 analytically  !
 ! D119  D(25,20,22,67)        170.4473         calculate D2E/DX2 analytically  !
 ! D120  D(25,20,22,68)        -74.4822         calculate D2E/DX2 analytically  !
 ! D121  D(26,20,22,23)        166.1541         calculate D2E/DX2 analytically  !
 ! D122  D(26,20,22,67)        -69.4914         calculate D2E/DX2 analytically  !
 ! D123  D(26,20,22,68)         45.5791         calculate D2E/DX2 analytically  !
 ! D124  D(27,20,22,23)        -75.9453         calculate D2E/DX2 analytically  !
 ! D125  D(27,20,22,67)         48.4092         calculate D2E/DX2 analytically  !
 ! D126  D(27,20,22,68)        163.4797         calculate D2E/DX2 analytically  !
 ! D127  D(22,20,25,21)        -40.6805         calculate D2E/DX2 analytically  !
 ! D128  D(22,20,25,30)        139.6959         calculate D2E/DX2 analytically  !
 ! D129  D(26,20,25,21)       -159.3938         calculate D2E/DX2 analytically  !
 ! D130  D(26,20,25,30)         20.9826         calculate D2E/DX2 analytically  !
 ! D131  D(27,20,25,21)         81.8526         calculate D2E/DX2 analytically  !
 ! D132  D(27,20,25,30)        -97.7709         calculate D2E/DX2 analytically  !
 ! D133  D(22,20,26,72)         58.6111         calculate D2E/DX2 analytically  !
 ! D134  D(22,20,26,73)        178.2512         calculate D2E/DX2 analytically  !
 ! D135  D(22,20,26,74)        -61.4088         calculate D2E/DX2 analytically  !
 ! D136  D(25,20,26,72)        178.1337         calculate D2E/DX2 analytically  !
 ! D137  D(25,20,26,73)        -62.2262         calculate D2E/DX2 analytically  !
 ! D138  D(25,20,26,74)         58.1138         calculate D2E/DX2 analytically  !
 ! D139  D(27,20,26,72)        -61.5015         calculate D2E/DX2 analytically  !
 ! D140  D(27,20,26,73)         58.1386         calculate D2E/DX2 analytically  !
 ! D141  D(27,20,26,74)        178.4786         calculate D2E/DX2 analytically  !
 ! D142  D(22,20,27,75)         57.4426         calculate D2E/DX2 analytically  !
 ! D143  D(22,20,27,76)        179.036          calculate D2E/DX2 analytically  !
 ! D144  D(22,20,27,77)        -62.4023         calculate D2E/DX2 analytically  !
 ! D145  D(25,20,27,75)        -64.0677         calculate D2E/DX2 analytically  !
 ! D146  D(25,20,27,76)         57.5257         calculate D2E/DX2 analytically  !
 ! D147  D(25,20,27,77)        176.0874         calculate D2E/DX2 analytically  !
 ! D148  D(26,20,27,75)        175.599          calculate D2E/DX2 analytically  !
 ! D149  D(26,20,27,76)        -62.8076         calculate D2E/DX2 analytically  !
 ! D150  D(26,20,27,77)         55.7541         calculate D2E/DX2 analytically  !
 ! D151  D(3,21,24,23)        -163.7242         calculate D2E/DX2 analytically  !
 ! D152  D(3,21,24,70)          72.2482         calculate D2E/DX2 analytically  !
 ! D153  D(3,21,24,71)         -43.3798         calculate D2E/DX2 analytically  !
 ! D154  D(25,21,24,23)        -45.9609         calculate D2E/DX2 analytically  !
 ! D155  D(25,21,24,70)       -169.9885         calculate D2E/DX2 analytically  !
 ! D156  D(25,21,24,71)         74.3834         calculate D2E/DX2 analytically  !
 ! D157  D(28,21,24,23)         79.5761         calculate D2E/DX2 analytically  !
 ! D158  D(28,21,24,70)        -44.4515         calculate D2E/DX2 analytically  !
 ! D159  D(28,21,24,71)       -160.0796         calculate D2E/DX2 analytically  !
 ! D160  D(3,21,25,20)         154.8483         calculate D2E/DX2 analytically  !
 ! D161  D(3,21,25,30)         -25.5109         calculate D2E/DX2 analytically  !
 ! D162  D(24,21,25,20)         40.9582         calculate D2E/DX2 analytically  !
 ! D163  D(24,21,25,30)       -139.401          calculate D2E/DX2 analytically  !
 ! D164  D(28,21,25,20)        -85.0266         calculate D2E/DX2 analytically  !
 ! D165  D(28,21,25,30)         94.6143         calculate D2E/DX2 analytically  !
 ! D166  D(3,21,28,78)         -51.8098         calculate D2E/DX2 analytically  !
 ! D167  D(3,21,28,79)          66.8723         calculate D2E/DX2 analytically  !
 ! D168  D(3,21,28,80)        -171.4035         calculate D2E/DX2 analytically  !
 ! D169  D(24,21,28,78)         62.2292         calculate D2E/DX2 analytically  !
 ! D170  D(24,21,28,79)       -179.0887         calculate D2E/DX2 analytically  !
 ! D171  D(24,21,28,80)        -57.3645         calculate D2E/DX2 analytically  !
 ! D172  D(25,21,28,78)       -172.9705         calculate D2E/DX2 analytically  !
 ! D173  D(25,21,28,79)        -54.2885         calculate D2E/DX2 analytically  !
 ! D174  D(25,21,28,80)         67.4358         calculate D2E/DX2 analytically  !
 ! D175  D(20,22,23,4)          68.0484         calculate D2E/DX2 analytically  !
 ! D176  D(20,22,23,24)        -53.8219         calculate D2E/DX2 analytically  !
 ! D177  D(20,22,23,69)       -171.4492         calculate D2E/DX2 analytically  !
 ! D178  D(67,22,23,4)         -55.8833         calculate D2E/DX2 analytically  !
 ! D179  D(67,22,23,24)       -177.7536         calculate D2E/DX2 analytically  !
 ! D180  D(67,22,23,69)         64.6191         calculate D2E/DX2 analytically  !
 ! D181  D(68,22,23,4)        -170.5538         calculate D2E/DX2 analytically  !
 ! D182  D(68,22,23,24)         67.5759         calculate D2E/DX2 analytically  !
 ! D183  D(68,22,23,69)        -50.0514         calculate D2E/DX2 analytically  !
 ! D184  D(4,23,24,21)         -71.2088         calculate D2E/DX2 analytically  !
 ! D185  D(4,23,24,70)          52.4846         calculate D2E/DX2 analytically  !
 ! D186  D(4,23,24,71)         169.2411         calculate D2E/DX2 analytically  !
 ! D187  D(22,23,24,21)         53.4399         calculate D2E/DX2 analytically  !
 ! D188  D(22,23,24,70)        177.1333         calculate D2E/DX2 analytically  !
 ! D189  D(22,23,24,71)        -66.1102         calculate D2E/DX2 analytically  !
 ! D190  D(69,23,24,21)        171.2508         calculate D2E/DX2 analytically  !
 ! D191  D(69,23,24,70)        -65.0558         calculate D2E/DX2 analytically  !
 ! D192  D(69,23,24,71)         51.7007         calculate D2E/DX2 analytically  !
 ! D193  D(20,25,32,35)        -94.5329         calculate D2E/DX2 analytically  !
 ! D194  D(20,25,32,84)         87.6458         calculate D2E/DX2 analytically  !
 ! D195  D(21,25,32,35)         84.7817         calculate D2E/DX2 analytically  !
 ! D196  D(21,25,32,84)        -93.0396         calculate D2E/DX2 analytically  !
 ! D197  D(19,29,31,33)        179.6188         calculate D2E/DX2 analytically  !
 ! D198  D(19,29,31,34)         -0.3755         calculate D2E/DX2 analytically  !
 ! D199  D(81,29,31,33)         -0.2346         calculate D2E/DX2 analytically  !
 ! D200  D(81,29,31,34)        179.771          calculate D2E/DX2 analytically  !
 ! D201  D(29,31,33,85)        120.5771         calculate D2E/DX2 analytically  !
 ! D202  D(29,31,33,86)       -120.2087         calculate D2E/DX2 analytically  !
 ! D203  D(29,31,33,87)          0.1608         calculate D2E/DX2 analytically  !
 ! D204  D(34,31,33,85)        -59.4284         calculate D2E/DX2 analytically  !
 ! D205  D(34,31,33,86)         59.7859         calculate D2E/DX2 analytically  !
 ! D206  D(34,31,33,87)       -179.8446         calculate D2E/DX2 analytically  !
 ! D207  D(29,31,34,38)        179.7822         calculate D2E/DX2 analytically  !
 ! D208  D(29,31,34,88)         -0.2494         calculate D2E/DX2 analytically  !
 ! D209  D(33,31,34,38)         -0.2122         calculate D2E/DX2 analytically  !
 ! D210  D(33,31,34,88)        179.7563         calculate D2E/DX2 analytically  !
 ! D211  D(30,32,35,36)         -3.7972         calculate D2E/DX2 analytically  !
 ! D212  D(30,32,35,37)        177.0579         calculate D2E/DX2 analytically  !
 ! D213  D(84,32,35,36)        176.2277         calculate D2E/DX2 analytically  !
 ! D214  D(84,32,35,37)         -2.9172         calculate D2E/DX2 analytically  !
 ! D215  D(31,34,38,40)        179.9689         calculate D2E/DX2 analytically  !
 ! D216  D(31,34,38,93)         -0.077          calculate D2E/DX2 analytically  !
 ! D217  D(88,34,38,40)          0.0            calculate D2E/DX2 analytically  !
 ! D218  D(88,34,38,93)        179.9541         calculate D2E/DX2 analytically  !
 ! D219  D(32,35,36,89)       -167.6847         calculate D2E/DX2 analytically  !
 ! D220  D(32,35,36,90)        -46.3623         calculate D2E/DX2 analytically  !
 ! D221  D(32,35,36,91)         71.2462         calculate D2E/DX2 analytically  !
 ! D222  D(37,35,36,89)         11.4039         calculate D2E/DX2 analytically  !
 ! D223  D(37,35,36,90)        132.7263         calculate D2E/DX2 analytically  !
 ! D224  D(37,35,36,91)       -109.6652         calculate D2E/DX2 analytically  !
 ! D225  D(32,35,37,39)        179.9244         calculate D2E/DX2 analytically  !
 ! D226  D(32,35,37,92)         -0.3127         calculate D2E/DX2 analytically  !
 ! D227  D(36,35,37,39)          0.8478         calculate D2E/DX2 analytically  !
 ! D228  D(36,35,37,92)       -179.3893         calculate D2E/DX2 analytically  !
 ! D229  D(35,37,39,41)        179.997          calculate D2E/DX2 analytically  !
 ! D230  D(35,37,39,94)          0.2935         calculate D2E/DX2 analytically  !
 ! D231  D(92,37,39,41)          0.2318         calculate D2E/DX2 analytically  !
 ! D232  D(92,37,39,94)       -179.4717         calculate D2E/DX2 analytically  !
 ! D233  D(34,38,40,42)        179.9024         calculate D2E/DX2 analytically  !
 ! D234  D(34,38,40,95)         -0.0804         calculate D2E/DX2 analytically  !
 ! D235  D(93,38,40,42)         -0.0524         calculate D2E/DX2 analytically  !
 ! D236  D(93,38,40,95)        179.9648         calculate D2E/DX2 analytically  !
 ! D237  D(37,39,41,43)       -179.982          calculate D2E/DX2 analytically  !
 ! D238  D(37,39,41,96)         -0.0047         calculate D2E/DX2 analytically  !
 ! D239  D(94,39,41,43)         -0.2796         calculate D2E/DX2 analytically  !
 ! D240  D(94,39,41,96)        179.6977         calculate D2E/DX2 analytically  !
 ! D241  D(38,40,42,43)       -179.9864         calculate D2E/DX2 analytically  !
 ! D242  D(38,40,42,97)          0.0064         calculate D2E/DX2 analytically  !
 ! D243  D(95,40,42,43)         -0.004          calculate D2E/DX2 analytically  !
 ! D244  D(95,40,42,97)        179.9887         calculate D2E/DX2 analytically  !
 ! D245  D(39,41,43,42)        179.9444         calculate D2E/DX2 analytically  !
 ! D246  D(39,41,43,44)         -0.0443         calculate D2E/DX2 analytically  !
 ! D247  D(96,41,43,42)         -0.0332         calculate D2E/DX2 analytically  !
 ! D248  D(96,41,43,44)        179.9782         calculate D2E/DX2 analytically  !
 ! D249  D(40,42,43,41)        179.978          calculate D2E/DX2 analytically  !
 ! D250  D(40,42,43,44)         -0.0337         calculate D2E/DX2 analytically  !
 ! D251  D(97,42,43,41)         -0.0147         calculate D2E/DX2 analytically  !
 ! D252  D(97,42,43,44)        179.9736         calculate D2E/DX2 analytically  !
 ! D253  D(41,43,44,98)       -179.3668         calculate D2E/DX2 analytically  !
 ! D254  D(41,43,44,99)        -58.7125         calculate D2E/DX2 analytically  !
 ! D255  D(41,43,44,100)        59.9615         calculate D2E/DX2 analytically  !
 ! D256  D(42,43,44,98)          0.6451         calculate D2E/DX2 analytically  !
 ! D257  D(42,43,44,99)        121.2993         calculate D2E/DX2 analytically  !
 ! D258  D(42,43,44,100)      -120.0266         calculate D2E/DX2 analytically  !
 --------------------------------------------------------------------------------
 Trust Radius=3.00D-01 FncErr=1.00D-07 GrdErr=1.00D-07 EigMax=2.50D+02 EigMin=1.00D-04
 Number of steps in this run=      2 maximum allowed number of steps=      2.
 GradGradGradGradGradGradGradGradGradGradGradGradGradGradGradGradGradGrad

 Stoichiometry    C40H56O4
 Framework group  C1[X(C40H56O4)]
 Deg. of freedom   294
 Full point group                 C1      NOp   1
 Largest Abelian subgroup         C1      NOp   1
 Largest concise Abelian subgroup C1      NOp   1
                         Standard orientation:                         
 ---------------------------------------------------------------------
 Center     Atomic      Atomic             Coordinates (Angstroms)
 Number     Number       Type             X           Y           Z
 ---------------------------------------------------------------------
      1          8           0      -11.722922    0.253448   -1.518592
      2          8           0      -13.011459   -2.467261    1.392426
      3          8           0       10.604402   -1.060887   -2.082858
      4          8           0       14.496122   -1.013229   -0.115637
      5          6           0      -11.048185   -0.140587   -0.315865
      6          6           0      -11.666791   -1.148282   -1.231899
      7          6           0      -11.779677    0.352993    0.953216
      8          6           0      -13.027728   -1.758482   -0.934277
      9          6           0      -13.265492   -0.065817    0.912656
     10          6           0      -13.535550   -1.504910    0.481703
     11          6           0      -10.823581   -1.945879   -2.196951
     12          6           0       -9.575400    0.098514   -0.370295
     13          6           0      -11.100550   -0.144144    2.239242
     14          6           0      -11.716384    1.888792    0.948833
     15          6           0       -8.645686   -0.749541    0.113214
     16          6           0       -7.210023   -0.571408    0.143771
     17          6           0       -6.369752   -1.782835    0.448932
     18          6           0       -6.623345    0.651791   -0.094000
     19          6           0       -5.240561    0.909778   -0.136213
     20          6           0       11.917619    0.049485    1.344569
     21          6           0       11.666831   -0.618432   -1.241372
     22          6           0       12.667661   -1.288029    1.512337
     23          6           0       13.382861   -1.814994    0.269907
     24          6           0       12.430244   -1.905026   -0.910729
     25          6           0       11.091058    0.012485    0.048137
     26          6           0       10.996201    0.233386    2.556566
     27          6           0       12.899060    1.237454    1.319326
     28          6           0       12.516742    0.381227   -2.030686
     29          6           0       -4.715070    2.175060   -0.361344
     30          6           0        9.888114    0.512084   -0.018124
     31          6           0       -3.358464    2.542633   -0.427303
     32          6           0        8.652141    0.956851   -0.156343
     33          6           0       -3.023275    3.985539   -0.692873
     34          6           0       -2.320859    1.611740   -0.254418
     35          6           0        7.454554    0.144332    0.002119
     36          6           0        7.652627   -1.320280    0.260964
     37          6           0        6.236514    0.750923   -0.110364
     38          6           0       -0.958701    1.888994   -0.308083
     39          6           0        4.953947    0.149087    0.006586
     40          6           0        0.035191    0.927154   -0.128709
     41          6           0        3.785910    0.856738   -0.125119
     42          6           0        1.400579    1.212960   -0.186005
     43          6           0        2.470972    0.337253   -0.023357
     44          6           0        2.281366   -1.127929    0.254400
     45          1           0      -13.001806   -2.840250   -1.098583
     46          1           0      -13.727415   -1.340008   -1.666058
     47          1           0      -13.702190    0.098912    1.902665
     48          1           0      -13.796103    0.588443    0.212861
     49          1           0      -14.616824   -1.673285    0.503259
     50          1           0      -10.523499   -2.902284   -1.757169
     51          1           0      -11.407134   -2.162026   -3.097458
     52          1           0       -9.927507   -1.398014   -2.483705
     53          1           0       -9.283223    1.028342   -0.852118
     54          1           0      -10.077033    0.227184    2.312606
     55          1           0      -11.656818    0.223030    3.106285
     56          1           0      -11.073514   -1.231333    2.322151
     57          1           0      -12.124621    2.288567    0.017512
     58          1           0      -12.297953    2.294058    1.782526
     59          1           0      -10.687397    2.243960    1.056975
     60          1           0      -12.069015   -2.561254    1.214700
     61          1           0       -9.001522   -1.696247    0.519882
     62          1           0       -5.795411   -2.106845   -0.428104
     63          1           0       -5.645789   -1.587035    1.247274
     64          1           0       -6.988797   -2.626871    0.760128
     65          1           0       -7.276896    1.506708   -0.253092
     66          1           0       -4.563497    0.074037    0.008533
     67          1           0       13.383282   -1.193600    2.340185
     68          1           0       11.948111   -2.056455    1.819711
     69          1           0       13.736046   -2.833743    0.490176
     70          1           0       12.975065   -2.235333   -1.799491
     71          1           0       11.679431   -2.668795   -0.686910
     72          1           0       11.584276    0.226027    3.479511
     73          1           0       10.460562    1.184233    2.504845
     74          1           0       10.253962   -0.566976    2.617605
     75          1           0       13.641127    1.143391    0.529113
     76          1           0       12.354195    2.175359    1.182896
     77          1           0       13.431952    1.294741    2.274974
     78          1           0       12.791399   -0.073888   -2.985732
     79          1           0       11.939256    1.289176   -2.230639
     80          1           0       13.431598    0.649206   -1.505406
     81          1           0       -5.437832    2.976174   -0.505935
     82          1           0       10.027190   -0.303094   -2.246655
     83          1           0       15.101407   -0.962402    0.633446
     84          1           0        8.501510    2.006931   -0.406921
     85          1           0       -2.429315    4.415836    0.121423
     86          1           0       -2.432508    4.097749   -1.609132
     87          1           0       -3.926318    4.588238   -0.802288
     88          1           0       -2.593791    0.578131   -0.060064
     89          1           0        6.732384   -1.894107    0.155940
     90          1           0        8.397397   -1.722627   -0.432513
     91          1           0        8.041424   -1.486516    1.272332
     92          1           0        6.238529    1.822171   -0.309536
     93          1           0       -0.636453    2.909774   -0.500862
     94          1           0        4.900097   -0.914768    0.213540
     95          1           0       -0.290778   -0.091592    0.064298
     96          1           0        3.868299    1.923864   -0.327648
     97          1           0        1.661219    2.252303   -0.382933
     98          1           0        1.231642   -1.413777    0.299951
     99          1           0        2.757120   -1.736778   -0.521677
    100          1           0        2.742632   -1.407278    1.207708
 ---------------------------------------------------------------------
 Rotational constants (GHZ):           0.2649000           0.0088541           0.0087754
 Standard basis: 6-31G(d,p) (6D, 7F)
 There are   940 symmetry adapted cartesian basis functions of A   symmetry.
 There are   940 symmetry adapted basis functions of A   symmetry.
   940 basis functions,  1624 primitive gaussians,   940 cartesian basis functions
   164 alpha electrons      164 beta electrons
       nuclear repulsion energy      4461.4929154671 Hartrees.
 NAtoms=  100 NActive=  100 NUniq=  100 SFac= 1.00D+00 NAtFMM=   60 NAOKFM=T Big=T
 Integral buffers will be    131072 words long.
 Raffenetti 1 integral format.
 Two-electron integral symmetry is turned on.
 One-electron integrals computed using PRISM.
 NBasis=   940 RedAO= T EigKep=  3.67D-04  NBF=   940
 NBsUse=   940 1.00D-06 EigRej= -1.00D+00 NBFU=   940
 SCF restart from the checkpoint file:  "neoxanthin-s1-geom-freq.chk"
 B after Tr=     0.000000    0.000000    0.000000
         Rot=    1.000000    0.000000    0.000000    0.000000 Ang=   0.00 deg.
 Requested convergence on RMS density matrix=1.00D-08 within 128 cycles.
 Requested convergence on MAX density matrix=1.00D-06.
 Requested convergence on             energy=1.00D-06.
 No special actions if energy rises.
 SCF Done:  E(RCAM-B3LYP) =  -1857.72742228     A.U. after    1 cycles
            NFock=  1  Conv=0.63D-08     -V/T= 2.0091
 DoSCS=F DFT=T ScalE2(SS,OS)=  1.000000  1.000000
 ExpMin= 1.61D-01 ExpMax= 5.48D+03 ExpMxC= 8.25D+02 IAcc=3 IRadAn=         5 AccDes= 0.00D+00
 HarFok:  IExCor=  205 AccDes= 0.00D+00 IRadAn=         5 IDoV=-2 UseB2=F ITyADJ=14
 ICtDFT= 12500011 ScaDFX=  1.000000  1.000000  1.000000  1.000000
 GSVD:  LWork=       -2288 too small for GESVD, short by       10340 words or       10340 for optimal perf.
 Range of M.O.s used for correlation:    45   940
 NBasis=   940 NAE=   164 NBE=   164 NFC=    44 NFV=     0
 NROrb=    896 NOA=   120 NOB=   120 NVA=   776 NVB=   776
 Orbital symmetries:
       Occupied  (A) (A) (A) (A) (A) (A) (A) (A) (A) (A) (A) (A)
                 (A) (A) (A) (A) (A) (A) (A) (A) (A) (A) (A) (A)
                 (A) (A) (A) (A) (A) (A) (A) (A) (A) (A) (A) (A)
                 (A) (A) (A) (A) (A) (A) (A) (A) (A) (A) (A) (A)
                 (A) (A) (A) (A) (A) (A) (A) (A) (A) (A) (A) (A)
                 (A) (A) (A) (A) (A) (A) (A) (A) (A) (A) (A) (A)
                 (A) (A) (A) (A) (A) (A) (A) (A) (A) (A) (A) (A)
                 (A) (A) (A) (A) (A) (A) (A) (A) (A) (A) (A) (A)
                 (A) (A) (A) (A) (A) (A) (A) (A) (A) (A) (A) (A)
                 (A) (A) (A) (A) (A) (A) (A) (A) (A) (A) (A) (A)
                 (A) (A) (A) (A) (A) (A) (A) (A) (A) (A) (A) (A)
                 (A) (A) (A) (A) (A) (A) (A) (A) (A) (A) (A) (A)
                 (A) (A) (A) (A) (A) (A) (A) (A) (A) (A) (A) (A)
                 (A) (A) (A) (A) (A) (A) (A) (A)
       Virtual   (A) (A) (A) (A) (A) (A) (A) (A) (A) (A) (A) (A)
                 (A) (A) (A) (A) (A) (A) (A) (A) (A) (A) (A) (A)
                 (A) (A) (A) (A) (A) (A) (A) (A) (A) (A) (A) (A)
                 (A) (A) (A) (A) (A) (A) (A) (A) (A) (A) (A) (A)
                 (A) (A) (A) (A) (A) (A) (A) (A) (A) (A) (A) (A)
                 (A) (A) (A) (A) (A) (A) (A) (A) (A) (A) (A) (A)
                 (A) (A) (A) (A) (A) (A) (A) (A) (A) (A) (A) (A)
                 (A) (A) (A) (A) (A) (A) (A) (A) (A) (A) (A) (A)
                 (A) (A) (A) (A) (A) (A) (A) (A) (A) (A) (A) (A)
                 (A) (A) (A) (A) (A) (A) (A) (A) (A) (A) (A) (A)
                 (A) (A) (A) (A) (A) (A) (A) (A) (A) (A) (A) (A)
                 (A) (A) (A) (A) (A) (A) (A) (A) (A) (A) (A) (A)
                 (A) (A) (A) (A) (A) (A) (A) (A) (A) (A) (A) (A)
                 (A) (A) (A) (A) (A) (A) (A) (A) (A) (A) (A) (A)
                 (A) (A) (A) (A) (A) (A) (A) (A) (A) (A) (A) (A)
                 (A) (A) (A) (A) (A) (A) (A) (A) (A) (A) (A) (A)
                 (A) (A) (A) (A) (A) (A) (A) (A) (A) (A) (A) (A)
                 (A) (A) (A) (A) (A) (A) (A) (A) (A) (A) (A) (A)
                 (A) (A) (A) (A) (A) (A) (A) (A) (A) (A) (A) (A)
                 (A) (A) (A) (A) (A) (A) (A) (A) (A) (A) (A) (A)
                 (A) (A) (A) (A) (A) (A) (A) (A) (A) (A) (A) (A)
                 (A) (A) (A) (A) (A) (A) (A) (A) (A) (A) (A) (A)
                 (A) (A) (A) (A) (A) (A) (A) (A) (A) (A) (A) (A)
                 (A) (A) (A) (A) (A) (A) (A) (A) (A) (A) (A) (A)
                 (A) (A) (A) (A) (A) (A) (A) (A) (A) (A) (A) (A)
                 (A) (A) (A) (A) (A) (A) (A) (A) (A) (A) (A) (A)
                 (A) (A) (A) (A) (A) (A) (A) (A) (A) (A) (A) (A)
                 (A) (A) (A) (A) (A) (A) (A) (A) (A) (A) (A) (A)
                 (A) (A) (A) (A) (A) (A) (A) (A) (A) (A) (A) (A)
                 (A) (A) (A) (A) (A) (A) (A) (A) (A) (A) (A) (A)
                 (A) (A) (A) (A) (A) (A) (A) (A) (A) (A) (A) (A)
                 (A) (A) (A) (A) (A) (A) (A) (A) (A) (A) (A) (A)
                 (A) (A) (A) (A) (A) (A) (A) (A) (A) (A) (A) (A)
                 (A) (A) (A) (A) (A) (A) (A) (A) (A) (A) (A) (A)
                 (A) (A) (A) (A) (A) (A) (A) (A) (A) (A) (A) (A)
                 (A) (A) (A) (A) (A) (A) (A) (A) (A) (A) (A) (A)
                 (A) (A) (A) (A) (A) (A) (A) (A) (A) (A) (A) (A)
                 (A) (A) (A) (A) (A) (A) (A) (A) (A) (A) (A) (A)
                 (A) (A) (A) (A) (A) (A) (A) (A) (A) (A) (A) (A)
                 (A) (A) (A) (A) (A) (A) (A) (A) (A) (A) (A) (A)
                 (A) (A) (A) (A) (A) (A) (A) (A) (A) (A) (A) (A)
                 (A) (A) (A) (A) (A) (A) (A) (A) (A) (A) (A) (A)
                 (A) (A) (A) (A) (A) (A) (A) (A) (A) (A) (A) (A)
                 (A) (A) (A) (A) (A) (A) (A) (A) (A) (A) (A) (A)
                 (A) (A) (A) (A) (A) (A) (A) (A) (A) (A) (A) (A)
                 (A) (A) (A) (A) (A) (A) (A) (A) (A) (A) (A) (A)
                 (A) (A) (A) (A) (A) (A) (A) (A) (A) (A) (A) (A)
                 (A) (A) (A) (A) (A) (A) (A) (A) (A) (A) (A) (A)
                 (A) (A) (A) (A) (A) (A) (A) (A) (A) (A) (A) (A)
                 (A) (A) (A) (A) (A) (A) (A) (A) (A) (A) (A) (A)
                 (A) (A) (A) (A) (A) (A) (A) (A) (A) (A) (A) (A)
                 (A) (A) (A) (A) (A) (A) (A) (A) (A) (A) (A) (A)
                 (A) (A) (A) (A) (A) (A) (A) (A) (A) (A) (A) (A)
                 (A) (A) (A) (A) (A) (A) (A) (A) (A) (A) (A) (A)
                 (A) (A) (A) (A) (A) (A) (A) (A) (A) (A) (A) (A)
                 (A) (A) (A) (A) (A) (A) (A) (A) (A) (A) (A) (A)
                 (A) (A) (A) (A) (A) (A) (A) (A) (A) (A) (A) (A)
                 (A) (A) (A) (A) (A) (A) (A) (A) (A) (A) (A) (A)
                 (A) (A) (A) (A) (A) (A) (A) (A) (A) (A) (A) (A)
                 (A) (A) (A) (A) (A) (A) (A) (A) (A) (A) (A) (A)
                 (A) (A) (A) (A) (A) (A) (A) (A) (A) (A) (A) (A)
                 (A) (A) (A) (A) (A) (A) (A) (A) (A) (A) (A) (A)
                 (A) (A) (A) (A) (A) (A) (A) (A) (A) (A) (A) (A)
                 (A) (A) (A) (A) (A) (A) (A) (A) (A) (A) (A) (A)
                 (A) (A) (A) (A) (A) (A) (A) (A)
 Generating guess from checkpoint file densities.
 Convergence on wavefunction:    0.000001000000000
 Iteration     1 Dimension     6 NMult     0 NNew      6
 CISAX will form     6 AO SS matrices at one time.
 Iteration     2 Dimension    12 NMult     6 NNew      6
 ***********************************************************************
 Excited states from <AA,BB:AA,BB> singles matrix:
 ***********************************************************************
 
 Ground to excited state transition densities written to RWF  633
 Ground to excited state transition electric dipole moments (Au):
       state          X           Y           Z        Dip. S.      Osc.
         1         7.6873     -0.1979      0.1212     59.1480      3.0960
         2         0.0510     -0.3063      0.0413      0.0982      0.0079
         3         1.6096     -1.5367      0.2308      5.0055      0.4455
 Ground to excited state transition velocity dipole moments (Au):
       state          X           Y           Z        Dip. S.      Osc.
         1        -0.5854      0.0142     -0.0103      0.3430      2.9120
         2        -0.0068      0.0355     -0.0046      0.0013      0.0073
         3        -0.1977      0.2005     -0.0288      0.0801      0.4001
 Ground to excited state transition magnetic dipole moments (Au):
       state          X           Y           Z
         1         0.0132      0.3587      2.4405
         2        -0.0102     -0.0246     -0.3037
         3        -0.0467      0.1305     -0.3677
 Ground to excited state transition velocity quadrupole moments (Au):
       state          XX          YY          ZZ          XY          XZ          YZ
         1         0.8679      0.2520      0.0099      0.3129     -0.0248     -0.0249
         2        -2.9116      0.0796     -0.0387     -0.1990     -0.0126     -0.0271
         3       -15.4750      0.5527     -0.2622     -0.7383     -0.1544     -0.1745
 <0|del|b> * <b|rxdel|0> + <0|del|b> * <b|delr+rdel|0>
 Rotatory Strengths (R) in cgs (10**-40 erg-esu-cm/Gauss)
       state          XX          YY          ZZ    R(velocity)    E-M Angle
         1      -102.7127    -67.3399    -79.1763    -83.0763       91.10
         2         5.4813      2.1433     -4.1971      1.1425       86.98
         3       235.7366     87.4968    -79.6258     81.2025       65.58
 1/2[<0|r|b>*<b|rxdel|0> + (<0|rxdel|b>*<b|r|0>)*]
 Rotatory Strengths (R) in cgs (10**-40 erg-esu-cm/Gauss)
       state          XX          YY          ZZ     R(length)
         1       -71.7175     50.2064   -209.2043    -76.9051
         2         0.3682     -5.3266      8.8616      1.3011
         3        53.1066    141.8265     60.0133     84.9821
  1/2[<0|del|b>*<b|r|0> + (<0|r|b>*<b|del|0>)*] (Au)
       state          X           Y           Z        Dip. S.   Osc.(frdel)
         1        -4.4998     -0.0028     -0.0012      4.5039      3.0026
         2        -0.0003     -0.0109     -0.0002      0.0114      0.0076
         3        -0.3182     -0.3081     -0.0066      0.6330      0.4220

 Excitation energies and oscillator strengths:
 
 Excited State   1:      Singlet-A      2.1365 eV  580.31 nm  f=3.0960  <S**2>=0.000
     163 ->166         0.13231
     164 ->165        -0.69705
 This state for optimization and/or second-order correction.
 Total Energy, E(TD-HF/TD-DFT) =  -1857.64890617    
 Copying the excited state density for this state as the 1-particle RhoCI density.
 
 Excited State   2:      Singlet-A      3.2857 eV  377.34 nm  f=0.0079  <S**2>=0.000
     162 ->166        -0.13112
     163 ->165         0.56798
     164 ->166         0.36231
 
 Excited State   3:      Singlet-A      3.6325 eV  341.32 nm  f=0.4455  <S**2>=0.000
     163 ->165         0.38546
     163 ->167         0.11202
     164 ->166        -0.58217
 SavETr:  write IOETrn=   770 NScale= 10 NData=  16 NLR=1 NState=    3 LETran=      64.
          IDoAtm=11111111111111111111111111111111111111111111111111
          IDoAtm=11111111111111111111111111111111111111111111111111
          Differentiating once with respect to electric field.
                with respect to dipole field.
          Differentiating once with respect to nuclear coordinates.
          There are     1 degrees of freedom in the 1st order CPHF.  IDoFFX=0 NUNeed=     1.
 LinEq1:  Iter=  0 NonCon=     1 RMS=7.69D-04 Max=1.54D-01 NDo=     1
 AX will form     1 AO Fock derivatives at one time.
 LinEq1:  Iter=  1 NonCon=     1 RMS=2.52D-04 Max=4.65D-02 NDo=     1
 LinEq1:  Iter=  2 NonCon=     1 RMS=1.01D-04 Max=1.40D-02 NDo=     1
 LinEq1:  Iter=  3 NonCon=     1 RMS=6.94D-05 Max=8.10D-03 NDo=     1
 LinEq1:  Iter=  4 NonCon=     1 RMS=3.83D-05 Max=3.30D-03 NDo=     1
 LinEq1:  Iter=  5 NonCon=     1 RMS=2.02D-05 Max=1.70D-03 NDo=     1
 LinEq1:  Iter=  6 NonCon=     1 RMS=1.05D-05 Max=8.88D-04 NDo=     1
 LinEq1:  Iter=  7 NonCon=     1 RMS=4.90D-06 Max=3.55D-04 NDo=     1
 LinEq1:  Iter=  8 NonCon=     1 RMS=2.73D-06 Max=3.07D-04 NDo=     1
 LinEq1:  Iter=  9 NonCon=     1 RMS=1.65D-06 Max=2.05D-04 NDo=     1
 LinEq1:  Iter= 10 NonCon=     1 RMS=8.10D-07 Max=7.39D-05 NDo=     1
 LinEq1:  Iter= 11 NonCon=     1 RMS=3.50D-07 Max=3.78D-05 NDo=     1
 LinEq1:  Iter= 12 NonCon=     1 RMS=1.74D-07 Max=1.77D-05 NDo=     1
 LinEq1:  Iter= 13 NonCon=     1 RMS=8.55D-08 Max=6.45D-06 NDo=     1
 LinEq1:  Iter= 14 NonCon=     1 RMS=4.15D-08 Max=4.02D-06 NDo=     1
 LinEq1:  Iter= 15 NonCon=     1 RMS=2.18D-08 Max=1.55D-06 NDo=     1
 LinEq1:  Iter= 16 NonCon=     1 RMS=1.36D-08 Max=1.71D-06 NDo=     1
 LinEq1:  Iter= 17 NonCon=     1 RMS=6.39D-09 Max=6.65D-07 NDo=     1
 LinEq1:  Iter= 18 NonCon=     1 RMS=3.42D-09 Max=2.19D-07 NDo=     1
 LinEq1:  Iter= 19 NonCon=     1 RMS=1.75D-09 Max=1.45D-07 NDo=     1
 LinEq1:  Iter= 20 NonCon=     1 RMS=7.58D-10 Max=5.22D-08 NDo=     1
 LinEq1:  Iter= 21 NonCon=     1 RMS=3.47D-10 Max=2.09D-08 NDo=     1
 LinEq1:  Iter= 22 NonCon=     1 RMS=2.02D-10 Max=1.58D-08 NDo=     1
 LinEq1:  Iter= 23 NonCon=     1 RMS=8.68D-11 Max=6.17D-09 NDo=     1
 LinEq1:  Iter= 24 NonCon=     1 RMS=4.29D-11 Max=2.57D-09 NDo=     1
 LinEq1:  Iter= 25 NonCon=     0 RMS=1.75D-11 Max=7.63D-10 NDo=     1
 Linear equations converged to 1.000D-10 1.000D-09 after    25 iterations.
          There are     1 degrees of freedom in the 1st order CPHF.  IDoFFX=0 NUNeed=     1.
 End of Minotr F.D. properties file   721 does not exist.
 End of Minotr F.D. properties file   722 does not exist.
 End of Minotr F.D. properties file   788 does not exist.
 Symmetrizing basis deriv contribution to polar:
 IMax=3 JMax=2 DiffMx= 0.00D+00
 G2DrvN: will do   101 centers at a time, making    1 passes.
 Calling FoFCou, ICntrl=  3107 FMM=T I1Cent=   0 AccDes= 0.00D+00.
 G2DrvN: will do   101 centers at a time, making    1 passes.
 Calling FoFCou, ICntrl=  3107 FMM=T I1Cent=   0 AccDes= 0.00D+00.
 G2DrvN: will do    51 centers at a time, making    2 passes.
 Calling FoFCou, ICntrl=  3107 FMM=T I1Cent=   0 AccDes= 0.00D+00.
 Calling FoFCou, ICntrl=  3107 FMM=T I1Cent=   0 AccDes= 0.00D+00.
 End of G2Drv F.D. properties file   721 does not exist.
 End of G2Drv F.D. properties file   722 does not exist.
 End of G2Drv F.D. properties file   788 does not exist.
          IDoAtm=11111111111111111111111111111111111111111111111111
          IDoAtm=11111111111111111111111111111111111111111111111111
          Differentiating once with respect to electric field.
                with respect to dipole field.
          Differentiating once with respect to nuclear coordinates.
 CalDSu exits because no D1Ps are significant.
          There are   303 degrees of freedom in the 1st order CPHF.  IDoFFX=6 NUNeed=   303.
    300 vectors produced by pass  0 Test12= 1.27D-13 1.00D-09 XBig12= 2.12D+03 4.30D+01.
 AX will form    72 AO Fock derivatives at one time.
    300 vectors produced by pass  1 Test12= 1.27D-13 1.00D-09 XBig12= 1.23D+02 3.82D+00.
    300 vectors produced by pass  2 Test12= 1.27D-13 1.00D-09 XBig12= 3.94D+00 3.59D-01.
    300 vectors produced by pass  3 Test12= 1.27D-13 1.00D-09 XBig12= 2.42D-02 1.30D-02.
    300 vectors produced by pass  4 Test12= 1.27D-13 1.00D-09 XBig12= 1.15D-04 7.85D-04.
    300 vectors produced by pass  5 Test12= 1.27D-13 1.00D-09 XBig12= 3.39D-07 3.57D-05.
    135 vectors produced by pass  6 Test12= 1.27D-13 1.00D-09 XBig12= 1.01D-09 2.15D-06.
      4 vectors produced by pass  7 Test12= 1.27D-13 1.00D-09 XBig12= 3.03D-12 1.05D-07.
      3 vectors produced by pass  8 Test12= 1.27D-13 1.00D-09 XBig12= 9.64D-15 4.91D-09.
 InvSVY:  IOpt=1 It=  1 EMax= 4.26D-14
 Solved reduced A of dimension  1942 with   303 vectors.
 Isotropic polarizability for W=    0.000000      917.01 Bohr**3.
 End of Minotr F.D. properties file   721 does not exist.
 End of Minotr F.D. properties file   722 does not exist.
 End of Minotr F.D. properties file   788 does not exist.
 This link is doing   303 degrees of freedom
 Form MO integral derivatives with frozen-active canonical formalism.
 CISSec: MDV=     805261593
 Doing TD-HF/TD-DFT second derivatives, IDoFFX=6 IOneXC=4 IRadAn=         1.
 Frozen orbitals handled with amplitudes over full window.
 CISAX will form    72 AO SS matrices at one time.
    301 vectors produced by pass  0 Test12= 1.86D-13 1.00D-09 XBig12= 1.71D+03 2.90D+01.
 AX will form    72 AO Fock derivatives at one time.
    300 vectors produced by pass  1 Test12= 1.86D-13 1.00D-09 XBig12= 8.10D+01 4.96D+00.
    300 vectors produced by pass  2 Test12= 1.86D-13 1.00D-09 XBig12= 2.36D+00 2.72D-01.
[...]
 0003,-0.00000005,-0.00000188,-0.00000402,0.00000041,0.00000340,-0.0000
 0109,0.00000265,-0.00000718,0.00000266,-0.00000635,0.00000146,-0.00000
 480,0.00001010,-0.00000603,0.00001494,0.00000584,-0.00000977,0.0000150
 1,0.00000669,0.00000853,-0.00000354,0.00000552,-0.00000209,-0.00000329
 ,-0.00000144,0.00000238,0.00000042,0.00000145,-0.00000633,0.00000254,0
 .00000233,-0.00000057,-0.00000020,-0.00000037,-0.00000050,0.00000067,0
 .00000011,-0.00000046,0.00000255,0.00000241,-0.00000184,0.00000001,0.0
 0000014,0.00000091,0.00000219,0.00000147,0.00000120,-0.00000017,-0.000
 00027,-0.00000268,-0.00000012,-0.00000117,-0.00000145,0.00000033,-0.00
 000008,-0.00000023,-0.00000113,-0.00000015,-0.00000058,0.00000251,-0.0
 0000092,0.00000165,0.00000287,-0.00000224,-0.00000180,-0.00000115,0.00
 000001,0.00000190,-0.00000044,0.00000039,0.00000012,-0.00000287,-0.000
 00178,0.00000139,0.00000503,0.00000644,0.00002036,-0.00000138,0.000000
 25,0.00000063,0.00000177,-0.00000166,0.00000469,0.00000643,-0.00000806
 ,0.00000420,0.00000762,-0.00001181,0.00000329,-0.00000376,0.00000129,-
 0.00000123,-0.00003126,0.00001261,-0.00000400,-0.00000262,0.00003106,0
 .00000501,0.00000575,0.00000414,0.00000353,-0.00000155,0.00000639,-0.0
 0000577,-0.00002274,-0.00000568,0.00004138,0.00002170,0.00004262,-0.00
 004594,0.00034839,0.00006408,0.00015854,-0.00009943,0.00014423,-0.0000
 9405,-0.00024715,-0.00025141,-0.00069976,-0.00055890,-0.00120072,-0.00
 113997,0.00214100,-0.00070066,-0.00678878,0.00368940,0.05088963,0.0000
 3044,0.00000284,0.00001321,0.00000337,-0.00000885,0.00000260,0.0000169
 5,-0.00000855,0.00003134,0.00000314,-0.00000401,0.00000520,-0.00005271
 ,-0.00000073,-0.00001679,-0.00000396,0.00000078,-0.00001516,0.00001111
 ,0.00000374,0.00001788,0.00000110,0.00000534,0.00000200,-0.00000015,-0
 .00000234,-0.00000921,-0.00000377,0.00000750,0.00000044,-0.00000014,0.
 00000289,0.00000384,0.00004013,0.00002654,-0.00000546,-0.00000123,0.00
 000349,-0.00000363,-0.00000207,-0.00000261,-0.00000395,-0.00007667,-0.
 00000213,0.00000573,0.00007869,-0.00004597,0.00000406,0.00000455,0.000
 01722,-0.00000529,-0.00004160,0.00000017,0.00000491,0.00003137,-0.0000
 0638,0.00000488,-0.00000659,-0.00000026,0.00001118,-0.00002489,-0.0000
 1219,-0.00002903,-0.00000639,0.00000439,-0.00000818,-0.00000083,0.0000
 0238,-0.00000503,-0.00000523,0.00001143,0.00000928,0.00001065,0.000001
 96,0.00001043,-0.00000825,0.00000692,-0.00000283,-0.00000098,-0.000005
 85,-0.00000395,0.00000216,-0.00000342,0.00000997,0.00000375,0.00000141
 ,0.00000043,-0.00005013,0.00000730,-0.00001484,-0.00004579,-0.00003603
 ,0.00001560,0.00013446,-0.00008759,0.00004275,-0.00001858,-0.00000694,
 0.00000139,0.00017813,0.00001931,-0.00000581,-0.00022418,0.00012567,-0
 .00005138,-0.00007956,0.00007451,-0.00005783,0.00002363,-0.00053294,0.
 00032278,-0.00022059,-0.00014652,0.00001585,-0.00019888,0.00044589,-0.
 00018949,0.00028964,-0.00012934,-0.00012545,0.00170559,0.00045398,0.00
 098093,-0.00235942,0.00044687,-0.00089608,0.00471642,0.00355461,-0.009
 50368,0.10496851,0.00767896,-0.26315406,0.00000088,-0.00000228,0.00000
 121,0.00000416,-0.00000060,0.00000053,0.00000512,-0.00000142,-0.000000
 98,0.00000074,0.00000081,0.00000132,0.00000319,-0.00000197,0.00000012,
 -0.00000068,-0.00000120,-0.00000071,0.00000384,0.00000029,0.00000416,0
 .00000177,-0.00000357,-0.00000790,0.00000201,-0.00000201,0.00000072,0.
 00000180,0.00000116,0.00000722,0.00000410,-0.00000110,-0.00000293,-0.0
 0000164,0.00000030,0.00000122,0.00000011,0.00000021,0.00000165,0.00000
 320,-0.00000043,-0.00000291,0.00000136,-0.00000247,0.00000608,-0.00000
 259,0.00000592,-0.00000236,0.00000370,-0.00000860,0.00000445,-0.000011
 62,-0.00000391,0.00000711,-0.00001121,-0.00000489,-0.00000606,0.000004
 25,-0.00000455,0.00000126,0.00000342,0.00000083,-0.00000222,-0.0000010
 8,-0.00000057,0.00000089,-0.00000255,-0.00000431,0.00000177,0.00000130
 ,-0.00000246,0.00000015,-0.00000209,-0.00000190,0.00000149,-0.00000372
 ,-0.00000421,0.00000364,0.00000032,-0.00000302,-0.00000079,-0.00000088
 ,-0.00000285,-0.00000107,0.00000053,-0.00000270,0.00000477,0.00000171,
 -0.00000107,0.00000010,-0.00000023,0.00000039,-0.00000012,0.00000115,-
 0.00000105,0.00000115,-0.00000285,0.00000161,-0.00000235,-0.00000369,0
 .00000385,0.00000262,0.00000109,-0.00000166,-0.00000170,0.00000123,-0.
 00000088,0.00000004,0.00000280,0.00000130,-0.00000176,-0.00000789,0.00
 000057,-0.00002616,0.00000083,0.00000086,-0.00000157,0.00000327,0.0000
 0092,-0.00000355,-0.00000346,0.00000514,-0.00000235,-0.00000433,0.0000
 0878,-0.00000224,0.00000364,-0.00000039,0.00000088,0.00001877,-0.00001
 151,-0.00000706,-0.00000518,-0.00005214,0.00003457,0.00001341,-0.00001
 606,0.00002159,0.00001675,-0.00002545,0.00001148,0.00014979,-0.0000794
 2,0.00005065,-0.00001838,-0.00003232,0.00001850,-0.00067844,-0.0005911
 4,-0.00024895,0.00005721,-0.00002476,0.00007239,-0.00002187,0.00004345
 ,0.00022879,0.00024187,0.00036159,0.00034551,-0.00217797,-0.00068529,0
 .00535073,-0.11515065,-0.01109711,0.28379990,-0.00003298,-0.00000166,-
 0.00001104,-0.00000217,0.00001249,0.00000052,0.00000949,-0.00000050,-0
 .00000288,0.00000216,0.00000058,0.00000007,0.00004356,0.00000640,0.000
 01595,0.00000753,-0.00000167,0.00001651,-0.00000973,-0.00000712,-0.000
 02451,-0.00000193,-0.00000545,-0.00000088,0.00000067,0.00000318,0.0000
 1105,0.00000328,-0.00001100,-0.00000326,0.00000057,-0.00000446,-0.0000
 0300,0.00000441,0.00002260,-0.00000592,0.00000070,-0.00000331,0.000005
 72,0.00000206,0.00000364,0.00000484,-0.00002046,-0.00004796,-0.0000030
 2,0.00002503,-0.00008130,0.00005674,0.00001519,-0.00001117,-0.00001577
 ,-0.00008100,0.00011634,-0.00005069,0.00007848,-0.00011897,0.00006142,
 0.00001167,0.00000515,0.00000493,0.00000586,0.00000278,-0.00001343,-0.
 00000062,-0.00000063,0.00000029,-0.00000190,-0.00000181,-0.00000061,-0
 .00000102,0.00000029,-0.00000021,-0.00004570,-0.00001828,0.00000941,-0
 .00000194,0.00000229,-0.00000208,0.00000028,0.00000099,-0.00000029,0.0
 0000018,0.00000041,0.00000102,-0.00010738,0.00011041,-0.00004432,0.000
 18019,0.00005510,-0.00002165,0.00016794,0.00007961,-0.00004376,-0.0003
 1128,0.00004399,-0.00003199,0.00000147,-0.00001041,0.00000635,-0.00011
 481,-0.00007284,0.00002818,0.00059579,0.00013606,-0.00006904,-0.000040
 49,-0.00003141,-0.00002519,-0.00101308,-0.00011343,-0.00004732,0.00025
 708,-0.00018411,0.00010873,0.00122695,0.00041242,-0.00009424,-0.000418
 70,0.00005476,0.00011023,-0.00135815,0.00076416,-0.00030164,0.00006008
 ,0.00013079,-0.00014080,0.00212794,0.00037203,0.00493998,-0.09708605,-
 0.07762502,-0.06766963,-0.00000097,0.00000200,-0.00000120,-0.00000411,
 0.00000108,-0.00000049,-0.00000602,0.00000138,0.00000147,-0.00000033,-
 0.00000052,-0.00000154,-0.00000340,0.00000236,0.00000020,0.00000107,0.
 00000102,0.00000073,-0.00000364,-0.00000011,-0.00000385,-0.00000284,0.
 00000502,0.00000641,-0.00000107,0.00000474,-0.00000039,-0.00000177,-0.
 00000172,-0.00000886,-0.00000570,0.00000118,0.00000366,0.00000164,-0.0
 0000058,-0.00000195,0.00000062,0.00000041,-0.00000182,-0.00000396,0.00
 000022,0.00000374,-0.00000151,0.00000181,-0.00000644,0.00000239,-0.000
 00761,0.00000043,-0.00000844,0.00001095,-0.00000144,0.00000699,0.00001
 002,-0.00000128,0.00000694,0.00000505,0.00000268,-0.00000621,0.0000087
 3,-0.00000108,-0.00000431,-0.00000247,-0.00000010,0.00000188,-0.000004
 88,-0.00000461,0.00000285,0.00000120,0.00000107,-0.00000078,-0.0000006
 8,-0.00000027,0.00000109,0.00000117,-0.00000039,0.00000179,0.00000045,
 -0.00000151,-0.00000076,-0.00000083,0.00000034,0.00000321,0.00000111,0
 .00000237,-0.00000070,-0.00000148,-0.00000187,-0.00000073,-0.00000229,
 -0.00000124,0.00000006,-0.00000017,-0.00000021,-0.00000083,-0.00000002
 ,-0.00000058,0.00000197,0.00000046,0.00000200,0.00000056,-0.00000084,-
 0.00000159,-0.00000073,0.00000056,0.00000003,0.00000083,-0.00000037,0.
 00000017,-0.00000844,-0.00000339,-0.00000025,-0.00000171,0.00000209,0.
 00000358,-0.00000042,-0.00000005,0.00000048,-0.00000097,-0.00000010,0.
 00000951,-0.00000212,-0.00001054,-0.00000041,0.00000284,-0.00000030,0.
 00000405,-0.00000723,-0.00000297,0.00000253,0.00001477,-0.00000510,-0.
 00001103,-0.00001051,0.00000023,0.00003450,0.00002469,-0.00000589,0.00
 000578,-0.00000577,0.00001017,0.00000520,0.00002614,0.00000269,0.00007
 862,-0.00007453,-0.00003915,0.00006872,-0.00083755,0.00052734,0.000292
 69,0.00042608,-0.00016247,-0.00013692,0.00007435,-0.00021630,-0.000196
 34,-0.00000337,-0.00010472,-0.00009354,-0.01180874,-0.02259786,-0.0188
 6070,0.00656383,0.01123011,0.00873249,0.10147442,-0.00004656,-0.000003
 42,-0.00001668,-0.00000411,0.00001411,-0.00000107,0.00000240,0.0000079
 4,-0.00001621,-0.00000049,0.00000350,0.00000042,0.00008153,0.00000040,
 0.00002469,0.00000618,-0.00000080,0.00002021,-0.00001721,-0.00000682,-
 0.00002848,-0.00000190,-0.00000795,-0.00000248,0.00000018,0.00000391,0
 .00001475,0.00000529,-0.00001230,-0.00000261,0.00000028,-0.00000425,-0
 .00000503,-0.00006427,-0.00004212,0.00000931,0.00000115,-0.00000467,0.
 00000604,0.00000256,0.00000443,0.00000644,0.00012498,0.00000371,-0.000
 00798,-0.00013158,0.00007929,-0.00000801,-0.00001105,-0.00003008,0.000
 00484,0.00008187,-0.00000365,-0.00000631,-0.00006829,0.00002450,-0.000
 01335,0.00000345,-0.00000716,-0.00002054,0.00001204,0.00001222,0.00001
 933,0.00000612,-0.00000264,0.00001289,-0.00000302,-0.00000419,-0.00000
 172,0.00000485,-0.00000963,-0.00000902,-0.00000559,0.00000039,-0.00000
 931,0.00000983,-0.00000357,0.00000635,0.00000074,0.00001020,0.00000764
 ,-0.00000052,0.00000310,-0.00000929,0.00002506,-0.00003151,0.00001895,
 0.00002532,-0.00001832,0.00001822,0.00001573,0.00005037,-0.00001866,-0
 .00009113,0.00007266,-0.00004059,0.00002478,0.00001190,-0.00000820,-0.
 00021590,-0.00003659,0.00000261,0.00015657,-0.00012343,0.00001760,0.00
 003006,-0.00004466,0.00008400,0.00005638,0.00049491,-0.00009326,0.0002
 1396,0.00016579,-0.00011556,0.00051836,0.00000448,-0.00009313,-0.00032
 777,-0.00016609,-0.00041055,-0.00200365,0.00058694,0.00088108,0.003637
 35,-0.00250076,0.00044779,-0.01339900,-0.02339476,-0.01403560,-0.07978
 657,-0.17508633,-0.10910744,-0.00000134,0.00000305,-0.00000166,-0.0000
 0616,0.00000115,-0.00000082,-0.00000824,0.00000225,0.00000190,-0.00000
 074,-0.00000104,-0.00000202,-0.00000468,0.00000302,0.00000005,0.000000
 98,0.00000159,0.00000081,-0.00000541,-0.00000027,-0.00000597,-0.000002
 88,0.00000547,0.00001146,-0.00000288,0.00000297,-0.00000257,-0.0000019
 8,-0.00000247,-0.00001182,-0.00000711,0.00000181,0.00000485,0.00000227
 ,-0.00000072,-0.00000203,0.00000023,0.00000007,-0.00000253,-0.00000557
 ,0.00000056,0.00000481,-0.00000148,0.00000341,-0.00000982,0.00000357,-
 0.00000916,0.00000162,-0.00000615,0.00001338,-0.00000816,0.00001895,0.
 00000718,-0.00001161,0.00001914,0.00000755,0.00001045,-0.00000593,0.00
 000728,-0.00000248,-0.00000539,-0.00000215,0.00000236,0.00000164,0.000
 00181,-0.00000477,0.00000497,0.00000538,-0.00000050,-0.00000140,0.0000
 0177,-0.00000186,0.00000228,0.00000201,-0.00000009,0.00000335,0.000005
 19,-0.00000289,-0.00000072,0.00000140,-0.00000004,0.00000338,0.0000041
 6,0.00000300,0.00000017,-0.00000202,-0.00000611,-0.00000114,0.00000158
 ,-0.00000508,-0.00000164,0.00000063,-0.00000054,-0.00000163,-0.0000004
 6,-0.00000228,0.00000587,-0.00000144,0.00000410,0.00000289,-0.00000392
 ,-0.00000177,-0.00000151,0.00000189,0.00000075,0.00000041,-0.00000014,
 0.00000015,-0.00000414,-0.00000275,0.00000119,0.00000060,0.00000185,0.
 00001925,-0.00000015,-0.00000012,0.00000048,-0.00000149,-0.00000469,0.
 00000038,0.00000844,-0.00001260,0.00000860,0.00000684,-0.00000986,0.00
 000410,-0.00000524,0.00000184,0.00000014,-0.00003534,0.00001004,-0.000
 01358,-0.00001087,0.00003041,-0.00006414,-0.00000717,0.00001425,-0.000
 01033,0.00001228,0.00003203,-0.00001148,-0.00012346,0.00004525,-0.0000
 2904,0.00002851,0.00006641,-0.00001029,0.00072255,0.00009861,-0.000551
 18,-0.00011011,0.00015536,-0.00000812,-0.00013166,0.00034407,0.0005936
 3,-0.00051303,0.00007088,0.00148341,0.00296633,0.00632116,0.00559402,0
 .00097671,0.00101836,0.00037988,0.08735592,0.19174772,0.00000614,0.000
 00148,0.00000321,0.00000070,-0.00000053,0.00000044,-0.00000509,0.00001
 080,0.00000182,-0.00000511,0.00000442,-0.00000077,-0.00001185,-0.00000
 022,-0.00000422,-0.00000016,-0.00000006,-0.00000374,0.00000276,0.00000
 052,0.00000385,0.00000004,0.00000109,0.00000085,0.00000002,-0.00000036
 ,-0.00000215,-0.00000084,0.00000050,-0.00000007,-0.00000004,0.00000045
 ,0.00000119,0.00000976,0.00000460,-0.00000049,-0.00000013,0.00000060,-
 0.00000068,-0.00000037,-0.00000055,-0.00000075,-0.00001990,0.00000136,
 0.00000114,0.00002432,-0.00001500,0.00000197,0.00000390,0.00000606,-0.
 00000240,-0.00002459,0.00000086,0.00000296,0.00002618,-0.00001409,0.00
 000644,0.00000483,0.00000159,-0.00000062,0.00000791,0.00000122,-0.0000
 0206,0.00000323,-0.00000325,0.00000228,0.00000396,-0.00000287,0.000000
 28,0.00000289,-0.00000404,-0.00000145,-0.00001046,-0.00000191,-0.00000
 073,0.00000421,-0.00000531,0.00000201,0.00000008,0.00000064,0.00000124
 ,-0.00000041,0.00000027,0.,-0.00003309,0.00003246,-0.00001398,0.000045
 65,0.00000886,-0.00000114,0.00005345,-0.00000004,-0.00000333,-0.000101
 15,0.00004617,-0.00002379,0.00000032,-0.00000592,0.00000169,-0.0000386
 1,0.00001694,0.00001565,0.00017492,-0.00005888,0.00000245,0.00004925,-
 0.00002783,0.00005822,-0.00012748,0.00032099,-0.00014238,0.00011981,-0
 .00001737,-0.00002427,-0.00024672,-0.00065341,0.00039829,-0.00014853,0
 .00016359,0.00019179,-0.00031875,-0.00005279,0.00053679,-0.00049680,0.
 00140911,-0.00095885,0.00809819,0.01187582,0.01030656,-0.06671887,-0.1
 0695413,-0.13380984,0.00000026,-0.00000048,0.00000014,0.00000086,-0.00
 000013,0.00000012,0.00000107,-0.00000032,-0.00000009,0.00000020,0.0000
 0019,0.00000023,0.00000047,-0.00000028,0.00000005,-0.00000001,-0.00000
 024,-0.00000016,0.00000103,-0.00000009,0.00000090,0.00000029,-0.000000
 68,-0.00000210,0.00000052,-0.00000045,0.00000010,0.00000021,0.00000031
 ,0.00000162,0.00000095,-0.00000032,-0.00000052,-0.00000028,0.00000019,
 0.00000006,0.00000012,0.00000007,0.00000032,0.00000074,-0.00000010,-0.
 00000053,0.00000007,-0.00000053,0.00000128,-0.00000047,0.00000064,-0.0
 0000036,0.00000123,-0.00000215,0.00000101,-0.00000350,-0.00000207,0.00
 000331,-0.00000334,-0.00000229,-0.00000209,-0.00000043,-0.00000129,0.0
 0000060,0.00000054,0.00000046,-0.00000077,0.00000014,-0.00000329,-0.00
 000071,0.00000019,0.00000116,-0.00000024,-0.00000090,0.00000197,-0.000
 00027,0.00000091,0.00000120,-0.00000048,0.00000006,0.00000126,-0.00000
 061,-0.00000029,0.00000143,-0.00000079,-0.00000054,0.00000094,0.000000
 27,-0.00000041,0.00000186,-0.00000130,-0.00000126,0.00000162,-0.000000
 05,-0.00000054,0.00000012,0.00000011,0.00000009,0.00000074,-0.00000048
 ,0.00000042,-0.00000035,0.00000059,-0.00000015,-0.00000055,-0.00000004
 ,0.00000013,0.00000106,-0.00000046,-0.00000012,-0.00000004,-0.00000008
 ,0.00000039,0.00000025,-0.00000050,0.00000051,-0.00000489,-0.00000043,
 0.00000093,-0.00000076,0.00000025,-0.00000296,0.00000195,0.00000288,-0
 .00000297,0.00000292,-0.00000198,-0.00000263,0.00000331,-0.00000087,0.
 00000039,-0.00000068,0.00000032,0.00001109,-0.00000724,-0.00000419,0.0
 0000174,0.00000823,-0.00004354,-0.00001642,0.00000671,-0.00001225,0.00
 000102,0.00001539,0.00000055,-0.00007943,0.00008553,0.00000190,-0.0000
 0564,-0.00002357,-0.00000633,0.00017538,0.00017992,-0.00029127,0.00004
 365,-0.00007626,0.00005643,0.00018973,-0.00017585,-0.00037679,0.000233
 89,-0.00004768,-0.00091329,-0.00021123,-0.00061755,-0.00185729,-0.0139
 9298,-0.02057325,-0.01707251,0.07332366,0.11513209,0.14397694\\-0.0000
 0146,-0.00000005,0.,0.00000040,-0.00000013,0.00000189,0.00000003,0.000
 00076,0.00000104,0.00000065,0.00000052,0.00000011,0.00000348,0.0000001
 5,-0.00000333,0.00000112,-0.00000076,-0.00000092,0.00000017,0.00000095
 ,0.00000132,-0.00000019,-0.00000056,0.00000214,0.00000066,0.00000024,-
 0.00000041,-0.00000064,-0.00000180,0.00000033,-0.00000095,0.00000030,-
 0.00000011,-0.00000300,0.00000207,0.00000048,-0.00000045,-0.00000025,0
 .00000002,-0.00000032,-0.00000063,-0.00000061,-0.00000042,-0.00000338,
 0.00000027,-0.00000300,-0.00000005,-0.00000349,-0.00000457,0.00000180,
 -0.00000095,-0.00000182,0.00000256,0.00000137,0.00000407,-0.00000585,0
 .00000321,-0.00000083,0.00000161,-0.00000155,0.00000105,0.00000088,-0.
 00000406,-0.00000120,-0.00000042,0.00000059,0.00000085,0.00000141,-0.0
 0000130,-0.00000141,-0.00000040,0.00000033,0.00000103,-0.00000323,0.00
 000508,-0.00000040,0.00000031,0.00000059,0.00000081,-0.00000132,0.0000
 0006,0.00000006,-0.00000128,0.00000091,-0.00000354,0.00000510,-0.00000
 143,0.00000137,0.00000357,-0.00000200,0.00000375,0.00000393,-0.0000025
 7,-0.00000379,-0.00000249,-0.00000301,-0.00000360,-0.00000098,0.000000
 54,-0.00000563,-0.00000257,0.00000128,0.00000540,0.00000038,-0.0000007
 7,0.00000154,0.00000011,0.00000044,-0.00000731,-0.00000071,0.00000164,
 -0.00000145,-0.00000204,0.00000202,0.00000461,-0.00000044,-0.00000002,
 0.00000690,0.00000095,-0.00000027,-0.00000603,0.00000074,-0.00000004,-
 0.00000843,-0.00000393,0.00000086,0.00000769,0.00000273,-0.00000169,-0
 .00000027,-0.00000110,0.00000057,0.00000033,0.00000065,-0.00000035,-0.
 00000027,0.00000032,-0.00000121,-0.00000017,0.00000037,-0.00000056,0.0
 0000002,0.00000016,-0.00000006,-0.00000015,-0.00000010,-0.00000072,0.0
 0000037,-0.00000032,0.00000005,-0.00000035,-0.00000029,-0.00000005,-0.
 00000008,-0.00000038,0.,0.00000091,0.00000018,0.00000204,0.00000033,0.
 00000029,-0.00000026,-0.00000007,0.00000034,-0.00000049,0.00000073,-0.
 00000083,0.00000049,-0.00000003,0.00000050,0.00000006,0.00000027,0.000
 00036,0.00000021,0.00000002,0.,0.00000061,-0.00000088,0.00000046,-0.00
 000184,0.00000073,0.00000034,0.00000127,0.00000044,-0.00000120,0.00000
 043,0.00000300,0.00000159,0.00000052,0.00000172,-0.00000134,0.00000023
 ,0.00000185,-0.00000088,-0.00000068,-0.00000024,-0.00000036,-0.0000004
 1,0.00000011,0.00000021,0.00000019,0.00000032,-0.00000021,-0.00000056,
 0.00000072,-0.00000070,0.00000038,0.00000028,0.00000010,0.00000005,-0.
 00000003,-0.00000035,-0.00000005,-0.00000020,0.00000009,-0.00000026,0.
 00000020,0.00000014,-0.00000007,-0.00000018,0.00000011,-0.00000039,-0.
 00000069,0.00000013,-0.00000032,0.00000018,0.00000027,-0.00000004,0.00
 000011,0.00000024,0.00000017,-0.00000003,0.00000003,0.00000003,-0.0000
 0022,-0.00000005,0.00000003,-0.00000053,0.00000005,0.00000062,0.000000
 48,-0.00000041,-0.00000018,-0.00000063,-0.00000049,0.00000027,0.000000
 44,0.00000031,-0.00000008,0.00000035,0.00000007,0.00000152,0.00000201,
 0.00000047,0.00000113,0.00000220,0.00000002,-0.00000066,0.00000158,0.0
 0000080,0.00000024,0.00000044,-0.00000029,0.,-0.00000016,0.00000015,-0
 .00000051,-0.00000012,-0.00000022,0.00000012,-0.00000188,0.00000047,0.
 00000066,0.00000141,0.00000045,0.00000018,-0.00000057,0.00000063,-0.00
 000046,-0.00000061,0.00000035,-0.00000057,-0.00000123,0.00000003,-0.00
 000027,0.00000160,0.00000050,0.00000077,0.00000158,0.00000066,-0.00000
 006,-0.00000049,0.00000015,0.00000053,0.00000023,-0.00000060,0.0000001
 3,-0.00000010,0.00000032,-0.00000037\\\@


 IF I AM NOT FOR MYSELF, WHO WILL BE?
 BUT IF I AM ONLY FOR MYSELF, WHAT AM I?
 THOUGH A SEEKER SINCE MY BIRTH,
 HERE IS ALL I'VE LEARNED ON EARTH,
 THIS IS THE GIST OF WHAT I KNOW:
 GIVE ADVICE AND BUY A FOE.

 PRESSED FOR RULES AND VERITIES,
 ALL I RECOLLECT ARE THESE:
 FEED A COLD TO STARVE A FEVER,
 ARGUE WITH NO TRUE-BELIEVER.
 THINK-TOO-LONG IS NEVER-ACT,
 SCRATCH A MYTH AND FIND A FACT.

 STITCH IN TIME SAVES TWENTY STITCHES,
 GIVE THE RICH TO PLEASE THEM, RICHES.
 GIVE TO LOVE YOU HEARTH AND HALL,
 BUT DO NOT GIVE ADVICE AT ALL.

                                  -- HILLEL
 Job cpu time:       4 days 20 hours 21 minutes 10.4 seconds.
 Elapsed time:       1 days  5 hours 21 minutes  5.2 seconds.
 File lengths (MBytes):  RWF=  31983 Int=      0 D2E=      0 Chk=    420 Scr=      1
 Normal termination of Gaussian 16 at Wed Jul 24 06:32:44 2019.
