 Entering Gaussian System, Link 0=g16
 Input=P6P_Freq_S0.com
 Output=P6P_Freq_S0.log
 Initial command:
 /usr/local/g09/l1.exe "/home/padawan/Leo/Gau-81975.inp" -scrdir="/home/padawan/Leo/"
 Entering Link 1 = /usr/local/g09/l1.exe PID=     81977.
  
 Copyright (c) 1988,1990,1992,1993,1995,1998,2003,2009,2013,
            Gaussian, Inc.  All Rights Reserved.
  
 This is part of the Gaussian(R) 09 program.  It is based on
 the Gaussian(R) 03 system (copyright 2003, Gaussian, Inc.),
 the Gaussian(R) 98 system (copyright 1998, Gaussian, Inc.),
 the Gaussian(R) 94 system (copyright 1995, Gaussian, Inc.),
 the Gaussian 92(TM) system (copyright 1992, Gaussian, Inc.),
 the Gaussian 90(TM) system (copyright 1990, Gaussian, Inc.),
 the Gaussian 88(TM) system (copyright 1988, Gaussian, Inc.),
 the Gaussian 86(TM) system (copyright 1986, Carnegie Mellon
 University), and the Gaussian 82(TM) system (copyright 1983,
 Carnegie Mellon University). Gaussian is a federally registered
 trademark of Gaussian, Inc.
  
 This software contains proprietary and confidential information,
 including trade secrets, belonging to Gaussian, Inc.
  
 This software is provided under written license and may be
 used, copied, transmitted, or stored only in accord with that
 written license.
  
 The following legend is applicable only to US Government
 contracts under FAR:
  
                    RESTRICTED RIGHTS LEGEND
  
 Use, reproduction and disclosure by the US Government is
 subject to restrictions as set forth in subparagraphs (a)
 and (c) of the Commercial Computer Software - Restricted
 Rights clause in FAR 52.227-19.
  
 Gaussian, Inc.
 340 Quinnipiac St., Bldg. 40, Wallingford CT 06492
  
  
 ---------------------------------------------------------------
 Warning -- This program may not be used in any manner that
 competes with the business of Gaussian, Inc. or will provide
 assistance to any competitor of Gaussian, Inc.  The licensee
 of this program is prohibited from giving any competitor of
 Gaussian, Inc. access to this program.  By using this program,
 the user acknowledges that Gaussian, Inc. is engaged in the
 business of creating and licensing software in the field of
 computational chemistry and represents and warrants to the
 licensee that it is not a competitor of Gaussian, Inc. and that
 it will not use this program in any manner prohibited above.
 ---------------------------------------------------------------
  

 Cite this work as:
 Gaussian 09, Revision D.01,
 M. J. Frisch, G. W. Trucks, H. B. Schlegel, G. E. Scuseria, 
 M. A. Robb, J. R. Cheeseman, G. Scalmani, V. Barone, B. Mennucci, 
 G. A. Petersson, H. Nakatsuji, M. Caricato, X. Li, H. P. Hratchian, 
 A. F. Izmaylov, J. Bloino, G. Zheng, J. L. Sonnenberg, M. Hada, 
 M. Ehara, K. Toyota, R. Fukuda, J. Hasegawa, M. Ishida, T. Nakajima, 
 Y. Honda, O. Kitao, H. Nakai, T. Vreven, J. A. Montgomery, Jr., 
 J. E. Peralta, F. Ogliaro, M. Bearpark, J. J. Heyd, E. Brothers, 
 K. N. Kudin, V. N. Staroverov, T. Keith, R. Kobayashi, J. Normand, 
 K. Raghavachari, A. Rendell, J. C. Burant, S. S. Iyengar, J. Tomasi, 
 M. Cossi, N. Rega, J. M. Millam, M. Klene, J. E. Knox, J. B. Cross, 
 V. Bakken, C. Adamo, J. Jaramillo, R. Gomperts, R. E. Stratmann, 
 O. Yazyev, A. J. Austin, R. Cammi, C. Pomelli, J. W. Ochterski, 
 R. L. Martin, K. Morokuma, V. G. Zakrzewski, G. A. Voth, 
 P. Salvador, J. J. Dannenberg, S. Dapprich, A. D. Daniels, 
 O. Farkas, J. B. Foresman, J. V. Ortiz, J. Cioslowski, 
 and D. J. Fox, Gaussian, Inc., Wallingford CT, 2013.
 
 ******************************************
 Gaussian 09:  ES64L-G09RevD.01 24-Apr-2013
                25-Feb-2019 
 ******************************************
 %nproc=4
 Will use up to    4 processors via shared memory.
 %mem=1GB
 --------------------------------------
 # freq=(hpmodes) m062x/6-31g(d) nosymm
 --------------------------------------
 1/10=4,30=1,38=1/1,3;
 2/12=2,15=1,17=6,18=5,40=1/2;
 3/5=1,6=6,7=1,11=2,16=1,25=1,30=1,71=2,74=-55,140=1/1,2,3;
 4//1;
 5/5=2,38=5,98=1/2;
 8/6=4,10=90,11=11/1;
 11/6=1,8=1,9=11,15=111,16=1,31=1/1,2,10;
 10/6=1,31=1/2;
 6/7=2,8=2,9=2,10=2,18=1,28=1/1;
 7/8=11,10=1,25=1,30=1/1,2,3,16;
 1/10=4,30=1/3;
 99//99;
 -------
 Freq S0
 -------
 Symbolic Z-matrix:
 Charge =  0 Multiplicity = 1
 6                    -1.76795  -0.30022   0.55844 
 6                    -1.70586   0.63824  -0.4781 
 6                    -1.01012   1.82984  -0.32344 
 6                    -0.34866   2.12734   0.87344 
 6                    -0.40667   1.18671   1.90825 
 6                    -1.10333  -0.00436   1.75404 
 6                    -2.51859  -1.5676    0.39389 
 6                    -3.72546  -1.60047  -0.31423 
 6                    -4.42741  -2.78724  -0.47601 
 6                    -3.94994  -3.98618   0.06602 
 6                    -2.74602  -3.95224   0.77904 
 6                    -2.04308  -2.76566   0.93939 
 1                    -2.19727   0.4234   -1.42291 
 1                    -0.9938    2.55068  -1.13628 
 1                     0.11403   1.38607   2.84071 
 1                    -1.15017  -0.70899   2.57979 
 1                    -4.1253   -0.67984  -0.73008 
 1                    -5.35025  -2.79058  -1.04923 
 1                    -2.36364  -4.86624   1.22493 
 1                    -1.10092  -2.7696    1.48038 
 6                    -6.1041   -7.67469  -0.51978 
 6                    -6.7842   -6.47275  -0.29394 
 6                    -6.09106  -5.28551  -0.09767 
 6                    -4.69192  -5.25554  -0.12135 
 6                    -4.01185  -6.45915  -0.33942 
 6                    -4.70497  -7.64609  -0.53359 
 1                    -7.87068  -6.46603  -0.29349 
 1                    -6.64118  -4.36761   0.09028 
 1                    -2.92612  -6.45971  -0.37882 
 1                    -4.1548   -8.57018  -0.68746 
 6                    -6.84093  -8.94074  -0.75285 
 6                    -8.01357  -9.23477  -0.04741 
 6                    -6.37742  -9.86798  -1.69376 
 6                    -8.70274  -10.42092  -0.27718 
 1                    -8.37335  -8.5374    0.70415 
 6                    -7.06488  -11.05452  -1.9231 
 1                    -5.48416  -9.64058  -2.26883 
 6                    -8.23115  -11.33533  -1.21586 
 1                    -9.60659  -10.63593   0.28481 
 1                    -6.69335  -11.75754  -2.66249 
 1                    -8.76893  -12.26113  -1.39515 
 6                     0.38579   3.40349   1.0444 
 6                     1.11777   3.96421  -0.00846 
 6                     0.36392   4.08473   2.26668 
 6                     1.80019   5.16277   0.15479 
 1                     1.16545   3.44532  -0.96194 
 6                     1.0469    5.28234   2.42985 
 1                    -0.21181   3.67855   3.09379 
 6                     1.7768    5.84448   1.37654 
 1                     2.34614   5.58835  -0.68282 
 1                     1.0279    5.78426   3.39332 
 6                     2.50019   7.12749   1.5514 
 6                     3.75692   7.32896   0.96846 
 6                     1.93963   8.16489   2.30544 
 6                     4.4335    8.5325    1.13578 
 1                     4.21703   6.52354   0.40246 
 6                     2.61568   9.36823   2.47385 
 1                     0.95322   8.03301   2.7414 
 6                     3.86575   9.5567    1.8894 
 1                     5.41142   8.6673    0.68345 
 1                     2.16056   10.16445   3.05524 
 1                     4.39335   10.49636   2.02035 
 

 GradGradGradGradGradGradGradGradGradGradGradGradGradGradGradGradGradGrad
 Berny optimization.
 Initialization pass.
 Trust Radius=3.00D-01 FncErr=1.00D-07 GrdErr=1.00D-07
 Number of steps in this run=      2 maximum allowed number of steps=      2.
 GradGradGradGradGradGradGradGradGradGradGradGradGradGradGradGradGradGrad

 Symmetry turned off by external request.
 Stoichiometry    C36H26
 Framework group  C1[X(C36H26)]
 Deg. of freedom   180
 Full point group                 C1      NOp   1
                          Input orientation:                          
 ---------------------------------------------------------------------
 Center     Atomic      Atomic             Coordinates (Angstroms)
 Number     Number       Type             X           Y           Z
 ---------------------------------------------------------------------
      1          6           0       -1.767952   -0.300223    0.558441
      2          6           0       -1.705860    0.638237   -0.478104
      3          6           0       -1.010119    1.829839   -0.323442
      4          6           0       -0.348657    2.127340    0.873444
      5          6           0       -0.406667    1.186708    1.908250
      6          6           0       -1.103327   -0.004358    1.754038
      7          6           0       -2.518586   -1.567602    0.393885
      8          6           0       -3.725456   -1.600466   -0.314227
      9          6           0       -4.427410   -2.787236   -0.476011
     10          6           0       -3.949936   -3.986180    0.066023
     11          6           0       -2.746015   -3.952241    0.779044
     12          6           0       -2.043077   -2.765658    0.939393
     13          1           0       -2.197274    0.423401   -1.422911
     14          1           0       -0.993801    2.550675   -1.136283
     15          1           0        0.114031    1.386072    2.840705
     16          1           0       -1.150175   -0.708992    2.579794
     17          1           0       -4.125299   -0.679840   -0.730076
     18          1           0       -5.350247   -2.790578   -1.049235
     19          1           0       -2.363635   -4.866240    1.224929
     20          1           0       -1.100916   -2.769601    1.480381
     21          6           0       -6.104105   -7.674693   -0.519775
     22          6           0       -6.784199   -6.472747   -0.293944
     23          6           0       -6.091059   -5.285512   -0.097666
     24          6           0       -4.691916   -5.255540   -0.121352
     25          6           0       -4.011848   -6.459155   -0.339415
     26          6           0       -4.704965   -7.646086   -0.533587
     27          1           0       -7.870679   -6.466029   -0.293488
     28          1           0       -6.641182   -4.367610    0.090284
     29          1           0       -2.926118   -6.459713   -0.378820
     30          1           0       -4.154795   -8.570183   -0.687462
     31          6           0       -6.840931   -8.940736   -0.752845
     32          6           0       -8.013575   -9.234770   -0.047409
     33          6           0       -6.377421   -9.867982   -1.693762
     34          6           0       -8.702738  -10.420919   -0.277175
     35          1           0       -8.373353   -8.537399    0.704149
     36          6           0       -7.064876  -11.054522   -1.923095
     37          1           0       -5.484157   -9.640581   -2.268830
     38          6           0       -8.231151  -11.335327   -1.215862
     39          1           0       -9.606594  -10.635934    0.284810
     40          1           0       -6.693352  -11.757544   -2.662488
     41          1           0       -8.768926  -12.261133   -1.395153
     42          6           0        0.385789    3.403489    1.044404
     43          6           0        1.117770    3.964212   -0.008463
     44          6           0        0.363918    4.084733    2.266682
     45          6           0        1.800194    5.162768    0.154791
     46          1           0        1.165451    3.445322   -0.961942
     47          6           0        1.046905    5.282338    2.429848
     48          1           0       -0.211805    3.678547    3.093791
     49          6           0        1.776795    5.844477    1.376537
     50          1           0        2.346138    5.588349   -0.682817
     51          1           0        1.027900    5.784260    3.393315
     52          6           0        2.500194    7.127486    1.551396
     53          6           0        3.756915    7.328955    0.968455
     54          6           0        1.939632    8.164886    2.305436
     55          6           0        4.433503    8.532498    1.135784
     56          1           0        4.217025    6.523543    0.402463
     57          6           0        2.615675    9.368230    2.473848
     58          1           0        0.953215    8.033009    2.741404
     59          6           0        3.865752    9.556697    1.889396
     60          1           0        5.411422    8.667303    0.683448
     61          1           0        2.160560   10.164448    3.055237
     62          1           0        4.393347   10.496357    2.020350
 ---------------------------------------------------------------------
 Rotational constants (GHZ):      0.9565236      0.0196333      0.0195554
 Standard basis: 6-31G(d) (6D, 7F)
   592 basis functions,  1112 primitive gaussians,   592 cartesian basis functions
   121 alpha electrons      121 beta electrons
       nuclear repulsion energy      2904.2677324235 Hartrees.
 NAtoms=   62 NActive=   62 NUniq=   62 SFac= 1.00D+00 NAtFMM=   60 NAOKFM=T Big=T
 Integral buffers will be    131072 words long.
 Raffenetti 2 integral format.
 Two-electron integral symmetry is turned off.
 One-electron integrals computed using PRISM.
 NBasis=   592 RedAO= T EigKep=  3.87D-04  NBF=   592
 NBsUse=   592 1.00D-06 EigRej= -1.00D+00 NBFU=   592
 ExpMin= 1.61D-01 ExpMax= 3.05D+03 ExpMxC= 4.57D+02 IAcc=1 IRadAn=         1 AccDes= 0.00D+00
 Harris functional with IExCor= 1009 and IRadAn=       1 diagonalized for initial guess.
 HarFok:  IExCor= 1009 AccDes= 0.00D+00 IRadAn=         1 IDoV= 1 UseB2=F ITyADJ=14
 ICtDFT=  3500011 ScaDFX=  1.000000  1.000000  1.000000  1.000000
 FoFCou: FMM=F IPFlag=           0 FMFlag=      100000 FMFlg1=        2001
         NFxFlg=           0 DoJE=T BraDBF=F KetDBF=T FulRan=T
         wScrn=  0.000000 ICntrl=     500 IOpCl=  0 I1Cent=   200000004 NGrid=           0
         NMat0=    1 NMatS0=      1 NMatT0=    0 NMatD0=    1 NMtDS0=    0 NMtDT0=    0
 Symmetry not used in FoFCou.
 Requested convergence on RMS density matrix=1.00D-08 within 128 cycles.
 Requested convergence on MAX density matrix=1.00D-06.
 Requested convergence on             energy=1.00D-06.
 No special actions if energy rises.
 Integral accuracy reduced to 1.0D-05 until final iterations.
 Initial convergence to 1.0D-05 achieved.  Increase integral accuracy.
 SCF Done:  E(RM062X) =  -1386.94709491     A.U. after   14 cycles
            NFock= 14  Conv=0.86D-08     -V/T= 2.0088
 DoSCS=F DFT=T ScalE2(SS,OS)=  1.000000  1.000000
 Range of M.O.s used for correlation:     1   592
 NBasis=   592 NAE=   121 NBE=   121 NFC=     0 NFV=     0
 NROrb=    592 NOA=   121 NOB=   121 NVA=   471 NVB=   471

 **** Warning!!: The largest alpha MO coefficient is  0.10011571D+02

 PrsmSu:  requested number of processors reduced to:   3 ShMem   1 Linda.
 Symmetrizing basis deriv contribution to polar:
 IMax=3 JMax=2 DiffMx= 0.00D+00
 G2DrvN: will do    32 centers at a time, making    2 passes.
 Calling FoFCou, ICntrl=  3107 FMM=T I1Cent=   0 AccDes= 0.00D+00.
 Calling FoFCou, ICntrl=  3107 FMM=T I1Cent=   0 AccDes= 0.00D+00.
 End of G2Drv F.D. properties file   721 does not exist.
 End of G2Drv F.D. properties file   722 does not exist.
 End of G2Drv F.D. properties file   788 does not exist.
          IDoAtm=11111111111111111111111111111111111111111111111111
          IDoAtm=111111111111
          Differentiating once with respect to electric field.
                with respect to dipole field.
          Differentiating once with respect to nuclear coordinates.
 CalDSu exits because no D1Ps are significant.
          There are   189 degrees of freedom in the 1st order CPHF.  IDoFFX=6 NUNeed=     3.
    189 vectors produced by pass  0 Test12= 5.70D-14 1.00D-09 XBig12= 3.43D+02 8.45D+00.
 AX will form    72 AO Fock derivatives at one time.
    189 vectors produced by pass  1 Test12= 5.70D-14 1.00D-09 XBig12= 2.45D+01 9.49D-01.
    186 vectors produced by pass  2 Test12= 5.70D-14 1.00D-09 XBig12= 2.95D-01 8.21D-02.
    186 vectors produced by pass  3 Test12= 5.70D-14 1.00D-09 XBig12= 1.57D-03 2.50D-03.
    186 vectors produced by pass  4 Test12= 5.70D-14 1.00D-09 XBig12= 8.33D-06 2.08D-04.
    186 vectors produced by pass  5 Test12= 5.70D-14 1.00D-09 XBig12= 2.55D-08 1.12D-05.
    113 vectors produced by pass  6 Test12= 5.70D-14 1.00D-09 XBig12= 8.23D-11 5.48D-07.
      7 vectors produced by pass  7 Test12= 5.70D-14 1.00D-09 XBig12= 2.19D-13 2.47D-08.
      3 vectors produced by pass  8 Test12= 5.70D-14 1.00D-09 XBig12= 1.68D-15 1.78D-09.
      2 vectors produced by pass  9 Test12= 5.70D-14 1.00D-09 XBig12= 3.51D-15 2.36D-09.
 InvSVY:  IOpt=1 It=  1 EMax= 7.11D-15
 Solved reduced A of dimension  1247 with   189 vectors.
 Isotropic polarizability for W=    0.000000      426.08 Bohr**3.
 End of Minotr F.D. properties file   721 does not exist.
 End of Minotr F.D. properties file   722 does not exist.
 End of Minotr F.D. properties file   788 does not exist.

 **********************************************************************

            Population analysis using the SCF density.

 **********************************************************************

 Alpha  occ. eigenvalues --  -10.56107 -10.56091 -10.56090 -10.56062 -10.56036
 Alpha  occ. eigenvalues --  -10.56035 -10.56008 -10.56003 -10.55944 -10.55938
 Alpha  occ. eigenvalues --  -10.55265 -10.55263 -10.55258 -10.55254 -10.55225
 Alpha  occ. eigenvalues --  -10.55223 -10.55205 -10.55204 -10.55186 -10.55183
 Alpha  occ. eigenvalues --  -10.55181 -10.55176 -10.55144 -10.55143 -10.55123
 Alpha  occ. eigenvalues --  -10.55122 -10.55108 -10.55106 -10.55085 -10.55084
 Alpha  occ. eigenvalues --  -10.55014 -10.55009 -10.54989 -10.54988 -10.54958
 Alpha  occ. eigenvalues --  -10.54957  -0.98262  -0.97793  -0.97083  -0.96152
 Alpha  occ. eigenvalues --   -0.95094  -0.94265  -0.89933  -0.88160  -0.85970
 Alpha  occ. eigenvalues --   -0.84984  -0.84720  -0.84377  -0.84000  -0.83661
 Alpha  occ. eigenvalues --   -0.83533  -0.83485  -0.81002  -0.78774  -0.72778
 Alpha  occ. eigenvalues --   -0.71443  -0.70616  -0.70589  -0.69467  -0.68278
 Alpha  occ. eigenvalues --   -0.68169  -0.66959  -0.66376  -0.66131  -0.65085
 Alpha  occ. eigenvalues --   -0.64401  -0.61357  -0.60746  -0.59695  -0.58041
 Alpha  occ. eigenvalues --   -0.56093  -0.54838  -0.54704  -0.54514  -0.53450
 Alpha  occ. eigenvalues --   -0.52156  -0.51880  -0.51558  -0.50868  -0.50774
 Alpha  occ. eigenvalues --   -0.50755  -0.50324  -0.49752  -0.49363  -0.49108
 Alpha  occ. eigenvalues --   -0.48989  -0.48786  -0.48404  -0.48047  -0.48003
 Alpha  occ. eigenvalues --   -0.47693  -0.45868  -0.45699  -0.45109  -0.44127
 Alpha  occ. eigenvalues --   -0.43285  -0.43128  -0.42324  -0.42321  -0.41313
 Alpha  occ. eigenvalues --   -0.41209  -0.41143  -0.40357  -0.39881  -0.39491
 Alpha  occ. eigenvalues --   -0.38989  -0.38748  -0.38614  -0.38279  -0.34908
 Alpha  occ. eigenvalues --   -0.33445  -0.31401  -0.30615  -0.30570  -0.30533
 Alpha  occ. eigenvalues --   -0.30528  -0.30321  -0.30321  -0.29023  -0.26661
 Alpha  occ. eigenvalues --   -0.24834
 Alpha virt. eigenvalues --   -0.02004  -0.00029   0.02490   0.02665   0.02912
 Alpha virt. eigenvalues --    0.03165   0.03393   0.03582   0.03639   0.05124
 Alpha virt. eigenvalues --    0.07528   0.09311   0.14093   0.14102   0.14794
 Alpha virt. eigenvalues --    0.14876   0.15142   0.15906   0.15971   0.16730
 Alpha virt. eigenvalues --    0.17755   0.17759   0.18819   0.18883   0.19470
 Alpha virt. eigenvalues --    0.20161   0.20539   0.21160   0.21185   0.21561
 Alpha virt. eigenvalues --    0.21572   0.22159   0.22668   0.23082   0.23796
 Alpha virt. eigenvalues --    0.23863   0.23979   0.24365   0.24672   0.24745
 Alpha virt. eigenvalues --    0.24809   0.26053   0.27348   0.28115   0.28270
 Alpha virt. eigenvalues --    0.28308   0.29031   0.29578   0.31014   0.31149
 Alpha virt. eigenvalues --    0.33200   0.33927   0.34221   0.34390   0.34835
 Alpha virt. eigenvalues --    0.34969   0.35288   0.35317   0.35524   0.36066
 Alpha virt. eigenvalues --    0.37519   0.38189   0.39144   0.39236   0.39334
 Alpha virt. eigenvalues --    0.40873   0.41635   0.42357   0.42791   0.43749
 Alpha virt. eigenvalues --    0.43761   0.44605   0.45029   0.48549   0.51330
 Alpha virt. eigenvalues --    0.52729   0.53490   0.54809   0.55065   0.56229
 Alpha virt. eigenvalues --    0.56374   0.57641   0.58279   0.58490   0.58642
 Alpha virt. eigenvalues --    0.58692   0.58798   0.59491   0.59898   0.59922
 Alpha virt. eigenvalues --    0.60078   0.60407   0.60422   0.60509   0.60597
 Alpha virt. eigenvalues --    0.60644   0.60795   0.61523   0.61811   0.61884
 Alpha virt. eigenvalues --    0.62843   0.62935   0.63291   0.63453   0.63855
 Alpha virt. eigenvalues --    0.64064   0.64710   0.64731   0.64837   0.64891
 Alpha virt. eigenvalues --    0.64954   0.65072   0.65082   0.65543   0.65736
 Alpha virt. eigenvalues --    0.65978   0.66043   0.66203   0.66664   0.66736
 Alpha virt. eigenvalues --    0.66903   0.67108   0.67157   0.67220   0.67641
 Alpha virt. eigenvalues --    0.67859   0.67940   0.68959   0.69535   0.69547
 Alpha virt. eigenvalues --    0.71367   0.71612   0.72099   0.72605   0.72610
 Alpha virt. eigenvalues --    0.73218   0.73269   0.73950   0.74203   0.74593
 Alpha virt. eigenvalues --    0.75088   0.75251   0.76309   0.77882   0.78558
 Alpha virt. eigenvalues --    0.79023   0.80790   0.81069   0.83242   0.83290
 Alpha virt. eigenvalues --    0.85087   0.85521   0.85747   0.86154   0.87113
 Alpha virt. eigenvalues --    0.87961   0.88203   0.88696   0.88762   0.89345
 Alpha virt. eigenvalues --    0.89630   0.89928   0.90179   0.90285   0.90983
 Alpha virt. eigenvalues --    0.90986   0.91058   0.91345   0.91878   0.91998
 Alpha virt. eigenvalues --    0.92056   0.93289   0.93360   0.93752   0.93767
 Alpha virt. eigenvalues --    0.94199   0.94906   0.95326   0.95692   0.96149
 Alpha virt. eigenvalues --    0.97281   0.97360   0.98218   0.98717   0.99088
 Alpha virt. eigenvalues --    0.99447   0.99708   0.99979   1.00963   1.01036
 Alpha virt. eigenvalues --    1.01932   1.02080   1.02414   1.04357   1.05518
 Alpha virt. eigenvalues --    1.05923   1.06312   1.06465   1.06763   1.08434
 Alpha virt. eigenvalues --    1.08776   1.08845   1.09158   1.10111   1.10932
 Alpha virt. eigenvalues --    1.11223   1.12351   1.12457   1.12601   1.13537
 Alpha virt. eigenvalues --    1.13840   1.15669   1.15986   1.16034   1.18364
 Alpha virt. eigenvalues --    1.18937   1.19875   1.19907   1.20564   1.20848
 Alpha virt. eigenvalues --    1.21553   1.21811   1.22133   1.22973   1.23109
 Alpha virt. eigenvalues --    1.23621   1.24085   1.25564   1.25763   1.28026
 Alpha virt. eigenvalues --    1.28460   1.29672   1.29794   1.30132   1.31270
 Alpha virt. eigenvalues --    1.34185   1.34421   1.34948   1.36348   1.37273
 Alpha virt. eigenvalues --    1.37938   1.41308   1.43288   1.44852   1.45523
 Alpha virt. eigenvalues --    1.46160   1.46464   1.46985   1.47924   1.47983
 Alpha virt. eigenvalues --    1.48185   1.49741   1.49917   1.51655   1.51808
 Alpha virt. eigenvalues --    1.52191   1.52794   1.53311   1.53717   1.54479
 Alpha virt. eigenvalues --    1.54633   1.54859   1.55075   1.55143   1.55325
 Alpha virt. eigenvalues --    1.55612   1.55694   1.56061   1.56319   1.56459
 Alpha virt. eigenvalues --    1.56525   1.56764   1.56857   1.57252   1.57550
 Alpha virt. eigenvalues --    1.63189   1.65394   1.68820   1.73197   1.74508
 Alpha virt. eigenvalues --    1.77430   1.79363   1.81114   1.81275   1.81835
 Alpha virt. eigenvalues --    1.81875   1.82230   1.82261   1.82722   1.83548
 Alpha virt. eigenvalues --    1.84655   1.85192   1.86090   1.87516   1.87621
 Alpha virt. eigenvalues --    1.88036   1.88662   1.88795   1.89195   1.89731
 Alpha virt. eigenvalues --    1.90732   1.91122   1.92919   1.92931   1.93304
 Alpha virt. eigenvalues --    1.94039   1.94870   1.95160   1.98255   1.98265
 Alpha virt. eigenvalues --    2.03158   2.03288   2.03640   2.04274   2.05027
 Alpha virt. eigenvalues --    2.06019   2.06102   2.07821   2.08694   2.08836
 Alpha virt. eigenvalues --    2.09290   2.09615   2.09666   2.10507   2.10660
 Alpha virt. eigenvalues --    2.10669   2.10940   2.13845   2.14253   2.14389
 Alpha virt. eigenvalues --    2.14689   2.14704   2.15082   2.16289   2.16294
 Alpha virt. eigenvalues --    2.17680   2.17994   2.18648   2.18796   2.19416
 Alpha virt. eigenvalues --    2.19448   2.20151   2.20202   2.20358   2.20875
 Alpha virt. eigenvalues --    2.21850   2.25702   2.25733   2.27434   2.28707
 Alpha virt. eigenvalues --    2.29589   2.30722   2.31208   2.31323   2.31451
 Alpha virt. eigenvalues --    2.32291   2.32655   2.34204   2.34373   2.34388
 Alpha virt. eigenvalues --    2.34576   2.34617   2.34678   2.34827   2.35853
 Alpha virt. eigenvalues --    2.36997   2.37214   2.37754   2.38894   2.39753
 Alpha virt. eigenvalues --    2.41111   2.43615   2.45547   2.46816   2.47684
 Alpha virt. eigenvalues --    2.50389   2.53026   2.56525   2.59830   2.60404
 Alpha virt. eigenvalues --    2.60953   2.61264   2.61563   2.61580   2.62964
 Alpha virt. eigenvalues --    2.63876   2.64002   2.65156   2.66538   2.67476
 Alpha virt. eigenvalues --    2.67572   2.67775   2.69649   2.70135   2.70210
 Alpha virt. eigenvalues --    2.70790   2.71592   2.72235   2.72920   2.73055
 Alpha virt. eigenvalues --    2.73963   2.76524   2.76835   2.77453   2.77864
 Alpha virt. eigenvalues --    2.77969   2.78177   2.78759   2.79347   2.80266
 Alpha virt. eigenvalues --    2.80887   2.80942   2.82279   2.85484   2.87661
 Alpha virt. eigenvalues --    2.89522   2.91923   2.95760   2.96731   2.96982
 Alpha virt. eigenvalues --    2.99056   2.99147   3.02648   3.06071   3.08369
 Alpha virt. eigenvalues --    3.14459   3.19961   3.24324   3.27168   3.34511
 Alpha virt. eigenvalues --    3.37658   3.41728   3.45866   3.49370   3.51707
 Alpha virt. eigenvalues --    4.11780   4.11984   4.12370   4.12975   4.13529
 Alpha virt. eigenvalues --    4.13798   4.14603   4.14791   4.15045   4.15049
 Alpha virt. eigenvalues --    4.15308   4.15347   4.15426   4.15458   4.16228
 Alpha virt. eigenvalues --    4.17752   4.19799   4.21956   4.31591   4.34010
 Alpha virt. eigenvalues --    4.36052   4.36128   4.36282   4.36740   4.37456
 Alpha virt. eigenvalues --    4.37706   4.37955   4.42224   4.47291   4.52347
 Alpha virt. eigenvalues --    4.64532   4.68450   4.73409   4.78054   4.81780
 Alpha virt. eigenvalues --    4.84193
          Condensed to atoms (all electrons):
 Mulliken charges:
               1
     1  C    0.058490
     2  C   -0.196393
     3  C   -0.195561
     4  C    0.058204
     5  C   -0.196471
     6  C   -0.195846
     7  C    0.058276
     8  C   -0.195974
     9  C   -0.195352
    10  C    0.058358
    11  C   -0.196744
    12  C   -0.195873
    13  H    0.166603
    14  H    0.166575
    15  H    0.166678
    16  H    0.166491
    17  H    0.166614
    18  H    0.166626
    19  H    0.166636
    20  H    0.166458
    21  C    0.057577
    22  C   -0.195271
    23  C   -0.196503
    24  C    0.058202
    25  C   -0.195018
    26  C   -0.196911
    27  H    0.166207
    28  H    0.166241
    29  H    0.166260
    30  H    0.166418
    31  C    0.054852
    32  C   -0.189074
    33  C   -0.188638
    34  C   -0.167994
    35  H    0.164601
    36  C   -0.167559
    37  H    0.164784
    38  C   -0.160581
    39  H    0.164770
    40  H    0.164810
    41  H    0.163860
    42  C    0.058129
    43  C   -0.195782
    44  C   -0.195591
    45  C   -0.195854
    46  H    0.166225
    47  C   -0.195912
    48  H    0.166304
    49  C    0.056961
    50  H    0.166315
    51  H    0.166430
    52  C    0.054421
    53  C   -0.188539
    54  C   -0.188692
    55  C   -0.167859
    56  H    0.164709
    57  C   -0.167690
    58  H    0.164754
    59  C   -0.160627
    60  H    0.164787
    61  H    0.164813
    62  H    0.163873
 Sum of Mulliken charges =   0.00000
 Mulliken charges with hydrogens summed into heavy atoms:
               1
     1  C    0.058490
     2  C   -0.029790
     3  C   -0.028986
     4  C    0.058204
     5  C   -0.029793
     6  C   -0.029355
     7  C    0.058276
     8  C   -0.029360
     9  C   -0.028726
    10  C    0.058358
    11  C   -0.030108
    12  C   -0.029415
    21  C    0.057577
    22  C   -0.029064
    23  C   -0.030262
    24  C    0.058202
    25  C   -0.028757
    26  C   -0.030493
    31  C    0.054852
    32  C   -0.024474
    33  C   -0.023855
    34  C   -0.003224
    36  C   -0.002750
    38  C    0.003279
    42  C    0.058129
    43  C   -0.029557
    44  C   -0.029287
    45  C   -0.029539
    47  C   -0.029482
    49  C    0.056961
    52  C    0.054421
    53  C   -0.023831
    54  C   -0.023938
    55  C   -0.003072
    57  C   -0.002876
    59  C    0.003246
 APT charges:
               1
     1  C    0.115368
     2  C   -0.094858
     3  C   -0.088218
     4  C    0.106039
     5  C   -0.089962
     6  C   -0.091683
     7  C    0.115662
     8  C   -0.093058
     9  C   -0.090672
    10  C    0.107574
    11  C   -0.088485
    12  C   -0.094819
    13  H    0.039007
    14  H    0.035841
    15  H    0.036313
    16  H    0.037953
    17  H    0.038283
    18  H    0.035961
    19  H    0.035587
    20  H    0.039471
    21  C    0.074992
    22  C   -0.075842
    23  C   -0.094002
    24  C    0.120598
    25  C   -0.096364
    26  C   -0.075154
    27  H    0.033485
    28  H    0.042126
    29  H    0.042798
    30  H    0.033920
    31  C    0.145218
    32  C   -0.113921
    33  C   -0.114657
    34  C   -0.003546
    35  H    0.049780
    36  C   -0.003724
    37  H    0.048060
    38  C   -0.078520
    39  H    0.017025
    40  H    0.017862
    41  H    0.024257
    42  C    0.120907
    43  C   -0.097214
    44  C   -0.094854
    45  C   -0.074255
    46  H    0.043687
    47  C   -0.077437
    48  H    0.042465
    49  C    0.075641
    50  H    0.032861
    51  H    0.034325
    52  C    0.144789
    53  C   -0.114134
    54  C   -0.113634
    55  C   -0.003075
    56  H    0.049953
    57  C   -0.004147
    58  H    0.048019
    59  C   -0.078600
    60  H    0.016442
    61  H    0.018274
    62  H    0.024288
 Sum of APT charges =  -0.00001
 APT charges with hydrogens summed into heavy atoms:
               1
     1  C    0.115368
     2  C   -0.055851
     3  C   -0.052377
     4  C    0.106039
     5  C   -0.053650
     6  C   -0.053730
     7  C    0.115662
     8  C   -0.054775
     9  C   -0.054712
    10  C    0.107574
    11  C   -0.052898
    12  C   -0.055348
    21  C    0.074992
    22  C   -0.042356
    23  C   -0.051876
    24  C    0.120598
    25  C   -0.053566
    26  C   -0.041234
    31  C    0.145218
    32  C   -0.064141
    33  C   -0.066597
    34  C    0.013479
    36  C    0.014138
    38  C   -0.054264
    42  C    0.120907
    43  C   -0.053527
    44  C   -0.052388
    45  C   -0.041394
    47  C   -0.043112
    49  C    0.075641
    52  C    0.144789
    53  C   -0.064181
    54  C   -0.065615
    55  C    0.013367
    57  C    0.014127
    59  C   -0.054312
 Electronic spatial extent (au):  <R**2>=          55057.7054
 Charge=              0.0000 electrons
 Dipole moment (field-independent basis, Debye):
    X=             -0.0100    Y=              0.0122    Z=             -0.0384  Tot=              0.0415
 Quadrupole moment (field-independent basis, Debye-Ang):
   XX=           -193.0767   YY=           -181.9084   ZZ=           -201.4048
   XY=             11.0706   XZ=             -1.8288   YZ=              5.4507
 Traceless Quadrupole moment (field-independent basis, Debye-Ang):
   XX=             -0.9467   YY=             10.2216   ZZ=             -9.2748
   XY=             11.0706   XZ=             -1.8288   YZ=              5.4507
 Octapole moment (field-independent basis, Debye-Ang**2):
  XXX=           1208.2875  YYY=            484.6266  ZZZ=           -246.6413  XYY=            395.9804
  XXY=            120.2489  XXZ=            -88.6467  XZZ=            449.5664  YZZ=            217.2167
  YYZ=            -94.6288  XYZ=            -14.9851
 Hexadecapole moment (field-independent basis, Debye-Ang**3):
 XXXX=         -21799.6902 YYYY=         -46945.4596 ZZZZ=          -2167.7117 XXXY=         -14036.3014
 XXXZ=          -1851.9497 YYYX=         -12968.8635 YYYZ=          -1581.2306 ZZZX=          -1517.4754
 ZZZY=          -3337.4855 XXYY=         -10691.2947 XXZZ=          -4526.2865 YYZZ=          -8797.8763
 XXYZ=          -1381.8838 YYXZ=           -229.6822 ZZXY=          -5407.4205
 N-N= 2.904267732424D+03 E-N=-9.019260482443D+03  KE= 1.374785951469D+03
  Exact polarizability: 385.896 240.747 651.322  12.888  74.543 241.020
 Approx polarizability: 459.157 151.578 618.833  -8.585  58.114 357.191
 Calling FoFJK, ICntrl=    100127 FMM=F ISym2X=0 I1Cent= 0 IOpClX= 0 NMat=1 NMatS=1 NMatT=0.
 Full mass-weighted force constant matrix:
 Low frequencies ---  -13.4181   -2.6291   -0.0024   -0.0005    0.0021    4.0273
 Low frequencies ---   15.0746   16.4922   22.4527
 Diagonal vibrational polarizability:
       10.4944303       8.9553042      13.6623387
 Harmonic frequencies (cm**-1), IR intensities (KM/Mole), Raman scattering
 activities (A**4/AMU), depolarization ratios for plane and unpolarized
 incident light, reduced masses (AMU), force constants (mDyne/A),
 and normal coordinates:
                           1         2         3         4         5
                           A         A         A         A         A
       Frequencies ---    14.0642   14.9988   22.1844   34.4569   45.2915
    Reduced masses ---     5.5908    6.4534    4.0558    6.0641    5.8114
   Force constants ---     0.0007    0.0009    0.0012    0.0042    0.0070
    IR Intensities ---     0.0168    0.0288    0.0030    0.0114    0.0031
 Coord Atom Element:
   1     1     6         -0.05340  -0.11815   0.02135   0.01874  -0.00450
   2     1     6          0.01470   0.07327  -0.00469  -0.00808   0.00045
   3     1     6          0.10706  -0.03030  -0.05631  -0.03805   0.04356
   1     2     6         -0.03738  -0.11782   0.05712  -0.00794  -0.06253
   2     2     6         -0.00726   0.08041  -0.01898  -0.02836   0.04035
   3     2     6          0.08824  -0.02375  -0.06692  -0.05849   0.07645
   1     3     6         -0.02415  -0.10981   0.05822  -0.04672  -0.10743
   2     3     6         -0.01256   0.07549  -0.01994  -0.00169   0.06105
   3     3     6          0.06772  -0.01812  -0.05963  -0.08376   0.10610
   1     4     6         -0.02968  -0.10199   0.01520  -0.06031  -0.09706
   2     4     6          0.00450   0.06274  -0.00632   0.04506   0.04487
   3     4     6          0.06641  -0.01920  -0.03945  -0.08822   0.10445
   1     5     6         -0.05104  -0.11063  -0.02115  -0.02780  -0.05619
   2     5     6          0.02945   0.05941   0.00780   0.06191   0.01633
   3     5     6          0.08788  -0.02266  -0.02872  -0.07089   0.08017
   1     6     6         -0.06133  -0.11881  -0.01597   0.01056  -0.00982
   2     6     6          0.03242   0.06546   0.00613   0.03679  -0.00873
   3     6     6          0.10687  -0.02791  -0.03854  -0.04512   0.04878
   1     7     6         -0.05589  -0.10448   0.01900   0.04211   0.05000
   2     7     6          0.01487   0.06627  -0.00319  -0.02658  -0.02546
   3     7     6          0.11669  -0.03875  -0.05770  -0.00224  -0.00663
   1     8     6         -0.06173  -0.10011   0.00550   0.04477   0.04042
   2     8     6          0.01635   0.04750   0.00419  -0.06124  -0.03070
   3     8     6          0.12672  -0.04529  -0.03449  -0.00447   0.01029
   1     9     6         -0.05436  -0.07987  -0.00333   0.05393   0.07385
   2     9     6          0.01337   0.03549   0.00695  -0.07154  -0.04314
   3     9     6          0.11665  -0.05074  -0.02115   0.03809  -0.03107
   1    10     6         -0.03749  -0.06196   0.00711   0.05895   0.11477
   2    10     6          0.00929   0.04272   0.00430  -0.04824  -0.05366
   3    10     6          0.09260  -0.05050  -0.03662   0.08528  -0.08906
   1    11     6         -0.03540  -0.06645   0.02462   0.05877   0.13537
   2    11     6          0.00885   0.06210  -0.00415  -0.01568  -0.05374
   3    11     6          0.08880  -0.04389  -0.06623   0.08349  -0.12385
   1    12     6         -0.04494  -0.08732   0.02943   0.05038   0.10402
   2    12     6          0.01301   0.07303  -0.00606  -0.00393  -0.03893
   3    12     6          0.10274  -0.03863  -0.07350   0.04113  -0.08292
   1    13     1         -0.03310  -0.11934   0.08379  -0.00085  -0.06550
   2    13     1         -0.02284   0.08821  -0.02972  -0.06352   0.05116
   3    13     1          0.08952  -0.02478  -0.07859  -0.05414   0.07569
   1    14     1         -0.00685  -0.10523   0.09156  -0.06934  -0.14184
   2    14     1         -0.03054   0.07924  -0.03026  -0.01920   0.08728
   3    14     1          0.05215  -0.01476  -0.06828  -0.09985   0.12865
   1    15     1         -0.05694  -0.10676  -0.05411  -0.03204  -0.05292
   2    15     1          0.04494   0.04988   0.02126   0.09695   0.00842
   3    15     1          0.08800  -0.02288  -0.01306  -0.07616   0.08033
   1    16     1         -0.07383  -0.12178  -0.04478   0.03316   0.02808
   2    16     1          0.04826   0.06122   0.01388   0.05352  -0.03876
   3    16     1          0.11984  -0.03178  -0.03343  -0.02964   0.02558
   1    17     1         -0.06883  -0.11293   0.00200   0.03817   0.00373
   2    17     1          0.01898   0.04146   0.00795  -0.07927  -0.02339
   3    17     1          0.13922  -0.04651  -0.02323  -0.03785   0.06206
   1    18     1         -0.05851  -0.07733  -0.01840   0.05579   0.06150
   2    18     1          0.01252   0.02106   0.01006  -0.09876  -0.04212
   3    18     1          0.12315  -0.05491   0.00269   0.03553  -0.01072
   1    19     1         -0.02474  -0.05382   0.03215   0.06498   0.17202
   2    19     1          0.00426   0.06787  -0.00882   0.00244  -0.06233
   3    19     1          0.07044  -0.04309  -0.08205   0.11579  -0.17286
   1    20     1         -0.04164  -0.08975   0.04006   0.04925   0.11606
   2    20     1          0.01458   0.08765  -0.00805   0.02233  -0.03530
   3    20     1          0.09720  -0.03448  -0.09173   0.04335  -0.10343
   1    21     6          0.01887   0.02954  -0.00874   0.02857   0.03380
   2    21     6         -0.00338  -0.01686   0.00670  -0.02914  -0.01849
   3    21     6         -0.02454  -0.01285   0.02058   0.08667  -0.03150
   1    22     6          0.00075  -0.00177  -0.00284   0.04201   0.06951
   2    22     6         -0.02864  -0.03145  -0.00566  -0.02420   0.00023
   3    22     6          0.05588  -0.02910   0.10368   0.09994  -0.02529
   1    23     6         -0.01775  -0.03300   0.00218   0.05549   0.10282
   2    23     6         -0.02439  -0.00984  -0.00425  -0.03566  -0.01710
   3    23     6          0.09580  -0.04748   0.08106   0.11597  -0.04855
   1    24     6         -0.01918  -0.03396   0.00003   0.05599   0.10319
   2    24     6          0.00331   0.02635   0.00590  -0.05166  -0.04762
   3    24     6          0.06052  -0.05023  -0.01964   0.12024  -0.08494
   1    25     6         -0.00057  -0.00286  -0.00529   0.04363   0.06924
   2    25     6          0.02779   0.04224   0.01759  -0.06060  -0.06434
   3    25     6         -0.01638  -0.04172  -0.10000   0.13196  -0.09812
   1    26     6          0.01777   0.02862  -0.00998   0.02926   0.03473
   2    26     6          0.02397   0.02113   0.01775  -0.05029  -0.05012
   3    26     6         -0.06030  -0.02313  -0.08305   0.11370  -0.06989
   1    27     1          0.00059  -0.00197  -0.00299   0.04214   0.06987
   2    27     1         -0.05099  -0.06098  -0.01613  -0.00951   0.02811
   3    27     1          0.08560  -0.02367   0.18556   0.08572   0.00161
   1    28     1         -0.03035  -0.05661   0.00977   0.06601   0.12812
   2    28     1         -0.04380  -0.02226  -0.01222  -0.02899  -0.00500
   3    28     1          0.15405  -0.05559   0.14287   0.11378  -0.03531
   1    29     1         -0.00147  -0.00302  -0.00797   0.04415   0.06835
   2    29     1          0.05258   0.07104   0.02888  -0.07438  -0.09199
   3    29     1         -0.04414  -0.04572  -0.17696   0.14324  -0.12597
   1    30     1          0.03120   0.05279  -0.01484   0.01790   0.01043
   2    30     1          0.04256   0.03379   0.02613  -0.05643  -0.06367
   3    30     1         -0.12486  -0.01280  -0.15129   0.10906  -0.07498
   1    31     6          0.03508   0.06384  -0.01181   0.00492  -0.01210
   2    31     6         -0.00445  -0.04319   0.00548  -0.00316   0.00175
   3    31     6         -0.07012   0.02194   0.03670   0.02019   0.00327
   1    32     6          0.07378   0.07913   0.06293  -0.01713  -0.03548
   2    32     6         -0.07024  -0.05986  -0.04965  -0.00489   0.07347
   3    32     6         -0.03342   0.04048   0.13798  -0.01750  -0.00430
   1    33     6          0.00895   0.08367  -0.08503  -0.00944  -0.04059
   2    33     6          0.06358  -0.05473   0.05877   0.03697  -0.04744
   3    33     6         -0.14962   0.04291  -0.05127  -0.02608   0.03814
   1    34     6          0.08508   0.11337   0.06589  -0.05568  -0.08661
   2    34     6         -0.06878  -0.08725  -0.05438   0.03403   0.09903
   3    34     6         -0.07499   0.07949   0.15164  -0.10262   0.01888
   1    35     1          0.09684   0.06512   0.12245  -0.00703  -0.01602
   2    35     1         -0.12340  -0.05047  -0.09052  -0.03631   0.11000
   3    35     1          0.02701   0.02503   0.20465   0.01652  -0.02901
   1    36     6          0.01927   0.11792  -0.08299  -0.04878  -0.08978
   2    36     6          0.06544  -0.08211   0.05536   0.07600  -0.02363
   3    36     6         -0.19234   0.08195  -0.03908  -0.11196   0.06363
   1    37     1         -0.02153   0.07175  -0.14512   0.00830  -0.02323
   2    37     1          0.11574  -0.04335   0.10437   0.04065  -0.10391
   3    37     1         -0.17634   0.02891  -0.12659   0.00289   0.04275
   1    38     6          0.05747   0.13322  -0.00745  -0.07299  -0.11404
   2    38     6         -0.00025  -0.09882  -0.00114   0.07601   0.05006
   3    38     6         -0.15537   0.10064   0.06316  -0.15208   0.05275
   1    39     1          0.11640   0.12548   0.12643  -0.07407  -0.10608
   2    39     1         -0.12131  -0.09992  -0.10052   0.03294   0.15714
   3    39     1         -0.04492   0.09408   0.23119  -0.13261   0.01002
   1    40     1         -0.00277   0.13275  -0.14062  -0.06135  -0.10935
   2    40     1          0.11802  -0.09116   0.09668   0.10795  -0.06148
   3    40     1         -0.25342   0.09803  -0.10740  -0.14865   0.08975
   1    41     1          0.06579   0.16101  -0.00538  -0.10601  -0.15383
   2    41     1          0.00128  -0.12102  -0.00454   0.10865   0.06985
   3    41     1         -0.18819   0.13207   0.07442  -0.22175   0.06974
   1    42     6         -0.01008  -0.07301   0.00623  -0.09509  -0.09571
   2    42     6         -0.00293   0.04563  -0.00307   0.06622   0.04524
   3    42     6          0.03772  -0.01584  -0.02443  -0.09711   0.09566
   1    43     6          0.02777  -0.06461   0.09221  -0.09464  -0.08782
   2    43     6         -0.06016   0.03457  -0.03887   0.07889   0.00612
   3    43     6          0.03373  -0.01590   0.01690  -0.08992   0.08035
   1    44     6         -0.02931  -0.04029  -0.09076  -0.10800  -0.08175
   2    44     6          0.04671   0.03237   0.03437   0.05975   0.07322
   3    44     6          0.00961  -0.00783  -0.04706  -0.09358   0.08000
   1    45     6          0.04457  -0.02055   0.08586  -0.08496  -0.05977
   2    45     6         -0.06542   0.00842  -0.03755   0.07162  -0.00734
   3    45     6          0.00140  -0.00686   0.03650  -0.07060   0.05013
   1    46     1          0.04195  -0.09013   0.16460  -0.09021  -0.10168
   2    46     1         -0.10104   0.04403  -0.06740   0.08930  -0.01984
   3    46     1          0.05667  -0.02235   0.03592  -0.09544   0.09390
   1    47     6         -0.01437   0.00401  -0.10036  -0.09816  -0.05702
   2    47     6          0.04286   0.00546   0.03751   0.05055   0.06528
   3    47     6         -0.02340   0.00132  -0.02871  -0.07416   0.04838
   1    48     1         -0.05774  -0.04640  -0.15978  -0.11556  -0.08582
   2    48     1          0.09043   0.04204   0.06096   0.05387   0.10176
   3    48     1          0.01136  -0.00737  -0.08203  -0.10186   0.09162
   1    49     6          0.02180   0.01699  -0.01021  -0.07556  -0.04222
   2    49     6         -0.01317  -0.00815  -0.00016   0.05037   0.02044
   3    49     6         -0.02813   0.00298   0.01404  -0.05848   0.03444
   1    50     1          0.07472  -0.01211   0.15713  -0.07362  -0.04837
   2    50     1         -0.10990  -0.00079  -0.06623   0.07552  -0.04006
   3    50     1         -0.00170  -0.00611   0.06832  -0.06128   0.04085
   1    51     1         -0.03210   0.03186  -0.17873  -0.09727  -0.04506
   2    51     1          0.08489  -0.00694   0.06851   0.03648   0.09192
   3    51     1         -0.04565   0.00831  -0.04637  -0.06690   0.03493
   1    52     6          0.03114   0.07148  -0.01379  -0.01987  -0.00152
   2    52     6         -0.01337  -0.04118  -0.00068   0.01268   0.00305
   3    52     6         -0.06510   0.02046   0.03348  -0.01154  -0.00621
   1    53     6          0.05343   0.07722   0.03884  -0.00240   0.02195
   2    53     6         -0.05379  -0.08183  -0.03408  -0.03042  -0.07305
   3    53     6         -0.03111   0.01856   0.13534   0.01089   0.01702
   1    54     6          0.01426   0.11946  -0.06813   0.03231   0.01333
   2    54     6          0.02886  -0.03419   0.03135   0.00742   0.06256
   3    54     6         -0.13575   0.04631  -0.05089   0.03431  -0.07825
   1    55     6          0.05862   0.12955   0.03674   0.06687   0.05871
   2    55     6         -0.05173  -0.11477  -0.03509  -0.07932  -0.08727
   3    55     6         -0.06615   0.04372   0.15092   0.08143  -0.03119
   1    56     1          0.06564   0.03979   0.07980  -0.04277   0.00820
   2    56     1         -0.08553  -0.08864  -0.05860  -0.02905  -0.12031
   3    56     1          0.02402  -0.00236   0.20380  -0.02395   0.07303
   1    57     6          0.01903   0.17164  -0.07045   0.10174   0.04901
   2    57     6          0.03110  -0.06734   0.03071  -0.04185   0.04985
   3    57     6         -0.17153   0.07143  -0.03587   0.10537  -0.12913
   1    58     1         -0.00195   0.11588  -0.10592   0.02089  -0.00228
   2    58     1          0.05858  -0.00268   0.05623   0.04176   0.11757
   3    58     1         -0.16341   0.04776  -0.12885   0.01886  -0.09650
   1    59     6          0.04148   0.17752  -0.01801   0.12055   0.07153
   2    59     6         -0.00929  -0.10809  -0.00249  -0.08620  -0.02535
   3    59     6         -0.13662   0.07071   0.06545   0.13096  -0.10552
   1    60     1          0.07546   0.13345   0.07618   0.07999   0.07585
   2    60     1         -0.08252  -0.14580  -0.06101  -0.11335  -0.14511
   3    60     1         -0.03894   0.04286   0.22850   0.09961  -0.01141
   1    61     1          0.00518   0.20869  -0.11305   0.14324   0.05944
   2    61     1          0.06400  -0.06160   0.05608  -0.04603   0.09823
   3    61     1         -0.22748   0.09266  -0.10411   0.14369  -0.18722
   1    62     1          0.04540   0.21931  -0.02021   0.17656   0.09912
   2    62     1         -0.00756  -0.13437  -0.00293  -0.12577  -0.03533
   3    62     1         -0.16481   0.09110   0.07723   0.18936  -0.14481
                           6         7         8         9        10
                           A         A         A         A         A
       Frequencies ---    50.2002   64.6388   69.5872   84.1445   86.6560
    Reduced masses ---     3.8978    5.5971    3.8032    4.6415    4.2964
   Force constants ---     0.0058    0.0138    0.0109    0.0194    0.0190
    IR Intensities ---     0.0032    0.2208    0.0241    0.0023    0.0012
 Coord Atom Element:
   1     1     6          0.01200  -0.08304  -0.02920  -0.07473   0.06257
   2     1     6         -0.00091   0.06103   0.01811   0.03356  -0.03359
   3     1     6         -0.00220  -0.08823  -0.01347   0.05767  -0.05264
   1     2     6         -0.07872  -0.10676   0.05163  -0.03975   0.12423
   2     2     6          0.03297   0.11709  -0.02131  -0.00734  -0.04616
   3     2     6          0.02313  -0.03859  -0.04366   0.02223  -0.05979
   1     3     6         -0.06744  -0.08329   0.06790  -0.00682   0.09044
   2     3     6          0.02980   0.09938  -0.03012  -0.02016  -0.03257
   3     3     6          0.00217   0.00650  -0.04112  -0.02199  -0.02004
   1     4     6          0.02676  -0.03616  -0.00896   0.00132   0.00514
   2     4     6         -0.00840   0.02328   0.00112   0.00560  -0.00571
   3     4     6         -0.04101   0.00044  -0.00610  -0.03319   0.02170
   1     5     6          0.12345  -0.03952  -0.10295  -0.04149  -0.04093
   2     5     6         -0.04446  -0.01941   0.04444   0.04827  -0.00342
   3     5     6         -0.06910  -0.03987   0.02849   0.00474   0.02150
   1     6     6          0.11831  -0.06384  -0.10950  -0.08213  -0.01566
   2     6     6         -0.04370   0.00280   0.04936   0.06706  -0.01372
   3     6     6         -0.05066  -0.08364   0.02257   0.05305  -0.01423
   1     7     6         -0.00683  -0.04916  -0.02153  -0.06441   0.04998
   2     7     6          0.00725   0.04453   0.01420   0.02504  -0.02460
   3     7     6          0.02117  -0.11643  -0.01584   0.07551  -0.06207
   1     8     6         -0.07576  -0.04290  -0.05738  -0.01781   0.06483
   2     8     6          0.03794  -0.00843   0.01672  -0.01498  -0.00983
   3     8     6          0.13781  -0.12385   0.04697  -0.00236  -0.08877
   1     9     6         -0.08622  -0.01357  -0.04966   0.02602   0.02133
   2     9     6          0.04313  -0.03324   0.00943  -0.03586   0.00928
   3     9     6          0.14413  -0.08410   0.05931  -0.03287  -0.04943
   1    10     6         -0.03098   0.00878   0.00351   0.02781  -0.02683
   2    10     6          0.01657  -0.00276   0.00250  -0.01652   0.01729
   3    10     6          0.03841  -0.03421  -0.00125   0.00780   0.00749
   1    11     6          0.03188   0.01759   0.04570  -0.02653  -0.03437
   2    11     6         -0.01011   0.04643   0.00010   0.02245  -0.00078
   3    11     6         -0.06585  -0.05333  -0.07310   0.09575   0.02088
   1    12     6          0.04501  -0.01127   0.03176  -0.07419   0.00201
   2    12     6         -0.01683   0.06736   0.00862   0.04699  -0.01909
   3    12     6         -0.07682  -0.09744  -0.07532   0.13348  -0.00896
   1    13     1         -0.16003  -0.13029   0.10496  -0.03296   0.18755
   2    13     1          0.06156   0.17305  -0.04865  -0.03248  -0.05950
   3    13     1          0.05900  -0.03928  -0.06576   0.02454  -0.08992
   1    14     1         -0.13625  -0.09025   0.14186   0.01546   0.12401
   2    14     1          0.05861   0.14085  -0.06145  -0.05512  -0.03963
   3    14     1          0.02585   0.04287  -0.06737  -0.05228  -0.02493
   1    15     1          0.19943  -0.01589  -0.16574  -0.03794  -0.10144
   2    15     1         -0.06771  -0.07450   0.07096   0.06399   0.00429
   3    15     1         -0.10636  -0.04138   0.05786  -0.00111   0.05331
   1    16     1          0.19355  -0.05997  -0.17724  -0.10763  -0.06342
   2    16     1         -0.07326  -0.03440   0.07424   0.10371  -0.00530
   3    16     1         -0.07159  -0.11572   0.04035   0.08281  -0.00976
   1    17     1         -0.11656  -0.06923  -0.08774  -0.01249   0.10505
   2    17     1          0.05631  -0.03197   0.02310  -0.03214  -0.01056
   3    17     1          0.21761  -0.15110   0.08915  -0.04530  -0.12915
   1    18     1         -0.13587  -0.01499  -0.08376   0.06181   0.02595
   2    18     1          0.06977  -0.07352   0.00831  -0.07176   0.01432
   3    18     1          0.22418  -0.08160   0.11401  -0.09058  -0.05793
   1    19     1          0.07688   0.04244   0.08732  -0.03296  -0.07389
   2    19     1         -0.02760   0.07092  -0.00738   0.03412  -0.00096
   3    19     1         -0.14117  -0.02469  -0.12419   0.12654   0.05507
   1    20     1          0.09640  -0.00733   0.06086  -0.11080  -0.01046
   2    20     1         -0.04083   0.10538   0.01563   0.08016  -0.02794
   3    20     1         -0.16611  -0.10477  -0.12523   0.19701   0.01271
   1    21     6         -0.00756   0.03812   0.02272   0.06504  -0.04321
   2    21     6          0.00349  -0.04581  -0.01757  -0.02762   0.02438
   3    21     6         -0.00412   0.13716   0.02507  -0.04940   0.02830
   1    22     6         -0.01567   0.03087   0.02252   0.06657  -0.04275
   2    22     6         -0.00390  -0.04403  -0.03570  -0.04309   0.00222
   3    22     6          0.01440   0.10421   0.12608   0.03898   0.15596
   1    23     6         -0.02684   0.02303   0.01577   0.06182  -0.04454
   2    23     6         -0.00107  -0.03266  -0.03233  -0.04489   0.00528
   3    23     6          0.03606   0.06046   0.12479   0.04819   0.15812
   1    24     6         -0.02714   0.02237   0.01275   0.05883  -0.04755
   2    24     6          0.01591  -0.02298  -0.00485  -0.02835   0.02642
   3    24     6          0.02721   0.04916   0.01237  -0.03023   0.03352
   1    25     6         -0.01939   0.03072   0.01588   0.06331  -0.04740
   2    25     6          0.02460  -0.03161   0.01479  -0.00625   0.04837
   3    25     6          0.00071   0.11964  -0.08676  -0.13772  -0.07984
   1    26     6         -0.00776   0.03829   0.02194   0.06460  -0.04435
   2    26     6          0.01997  -0.04347   0.00927  -0.00811   0.04920
   3    26     6         -0.00723   0.16218  -0.07504  -0.15056  -0.08012
   1    27     1         -0.01548   0.03089   0.02291   0.06700  -0.04265
   2    27     1         -0.00965  -0.04945  -0.04803  -0.05493  -0.01030
   3    27     1          0.01510   0.09315   0.20260   0.10673   0.24578
   1    28     1         -0.03845   0.01775   0.01300   0.06435  -0.04043
   2    28     1         -0.01274  -0.02775  -0.05050  -0.05857  -0.00976
   3    28     1          0.05805   0.02087   0.20527   0.12258   0.24651
   1    29     1         -0.02013   0.03091   0.01286   0.06165  -0.05056
   2    29     1          0.03328  -0.02825   0.03504   0.01343   0.07048
   3    29     1         -0.01181   0.12541  -0.17255  -0.20091  -0.17045
   1    30     1          0.00452   0.04282   0.03141   0.06893  -0.03890
   2    30     1          0.02923  -0.04655   0.02740   0.00720   0.06789
   3    30     1         -0.01698   0.19554  -0.14786  -0.22743  -0.16889
   1    31     6          0.00447   0.03263   0.01666   0.03316  -0.02087
   2    31     6         -0.00231  -0.03271  -0.01285  -0.01590   0.01537
   3    31     6         -0.01120   0.08367   0.01581  -0.01414   0.00267
   1    32     6         -0.05639   0.00537  -0.04526   0.01661  -0.05201
   2    32     6          0.03708  -0.04244   0.03751   0.05720  -0.00236
   3    32     6         -0.09543   0.03354  -0.06472  -0.00832  -0.05689
   1    33     6          0.07510   0.02878   0.05615  -0.01017   0.04742
   2    33     6         -0.05266   0.01611  -0.05452  -0.06543   0.00748
   3    33     6          0.07193   0.03387   0.07523   0.01447   0.04171
   1    34     6         -0.04710  -0.03355  -0.07092  -0.04885  -0.01034
   2    34     6          0.03244   0.00096   0.05847   0.09214  -0.02393
   3    34     6         -0.09706  -0.07456  -0.09227   0.01515  -0.07220
   1    35     1         -0.11492   0.00743  -0.08109   0.05043  -0.11116
   2    35     1          0.07212  -0.08046   0.06233   0.09068  -0.00244
   3    35     1         -0.15643   0.06995  -0.10551  -0.02366  -0.08557
   1    36     6          0.08867  -0.01146   0.03748  -0.07200   0.09650
   2    36     6         -0.06105   0.06027  -0.03981  -0.03564  -0.01869
   3    36     6          0.07553  -0.07565   0.05605   0.04280   0.03460
   1    37     1          0.12144   0.05128   0.10145   0.00247   0.06620
   2    37     1         -0.08837   0.02656  -0.09970  -0.12747   0.01714
   3    37     1          0.13024   0.07302   0.12842   0.00942   0.07582
   1    38     6          0.02670  -0.04563  -0.02935  -0.09407   0.06677
   2    38     6         -0.01887   0.05590   0.01783   0.04514  -0.03595
   3    38     6         -0.01012  -0.13413  -0.03177   0.03841  -0.02173
   1    39     1         -0.09720  -0.05859  -0.12406  -0.06478  -0.03631
   2    39     1          0.06863  -0.00507   0.10656   0.15597  -0.03308
   3    39     1         -0.16369  -0.11716  -0.15919   0.01416  -0.11751
   1    40     1          0.14717  -0.01870   0.07311  -0.10371   0.15680
   2    40     1         -0.09996   0.10137  -0.07070  -0.07383  -0.02480
   3    40     1          0.14201  -0.11835   0.10337   0.06310   0.07083
   1    41     1          0.03599  -0.08230  -0.04844  -0.14438   0.10299
   2    41     1         -0.02433   0.09478   0.03309   0.07146  -0.05591
   3    41     1         -0.00951  -0.22513  -0.05317   0.05324  -0.02681
   1    42     6          0.01760   0.02664   0.00845   0.03549  -0.02619
   2    42     6         -0.00291  -0.01754  -0.00941  -0.01020   0.00972
   3    42     6         -0.04295   0.03583  -0.00157  -0.05886   0.04399
   1    43     6          0.02363   0.03064   0.09691  -0.03613  -0.13210
   2    43     6          0.00169  -0.01629  -0.06142   0.03198   0.08259
   3    43     6         -0.03574   0.03968   0.03278  -0.08802   0.00848
   1    44     6         -0.00426   0.08621  -0.06342   0.12947   0.06077
   2    44     6         -0.00572  -0.06123   0.03524  -0.06237  -0.04778
   3    44     6         -0.04208   0.06160  -0.02781  -0.02816   0.07892
   1    45     6          0.02019   0.06847   0.09962  -0.02506  -0.14282
   2    45     6          0.00306  -0.04067  -0.06338   0.02870   0.08585
   3    45     6         -0.02285   0.05891   0.03593  -0.08791   0.00910
   1    46     1          0.03292  -0.00667   0.15748  -0.10052  -0.19715
   2    46     1          0.00310   0.00833  -0.09583   0.07134   0.13122
   3    46     1         -0.03640   0.02436   0.05453  -0.11266  -0.02063
   1    47     6         -0.01866   0.11929  -0.05098   0.13645   0.05251
   2    47     6          0.00110  -0.08205   0.02666  -0.06953  -0.04097
   3    47     6         -0.03323   0.07929  -0.02157  -0.02822   0.08133
   1    48     1         -0.01084   0.09523  -0.13041   0.18883   0.13900
   2    48     1         -0.01524  -0.07031   0.07776  -0.09402  -0.09690
   3    48     1         -0.05114   0.06351  -0.05370  -0.00301   0.10913
   1    49     6         -0.00356   0.09747   0.02650   0.05037  -0.04363
   2    49     6          0.00086  -0.06587  -0.01552  -0.01963   0.01870
   3    49     6         -0.02220   0.07294   0.00883  -0.06005   0.04700
   1    50     1          0.03590   0.06089   0.15540  -0.08065  -0.21940
   2    50     1          0.00670  -0.02913  -0.10271   0.06590   0.14034
   3    50     1         -0.01105   0.05971   0.05271  -0.10597  -0.01314
   1    51     1         -0.03772   0.14891  -0.10878   0.20489   0.12563
   2    51     1          0.00581  -0.10157   0.05327  -0.10476  -0.08382
   3    51     1         -0.03589   0.09035  -0.03701  -0.00850   0.10577
   1    52     6         -0.00666   0.06039   0.01562   0.01813  -0.01807
   2    52     6         -0.00001  -0.04254  -0.00874  -0.00554   0.00591
   3    52     6         -0.00323   0.05339   0.00758  -0.03429   0.02908
   1    53     6          0.04888   0.06391  -0.03320   0.05092   0.00016
   2    53     6         -0.03660  -0.01472   0.04801   0.02241  -0.05942
   3    53     6          0.10499   0.07173  -0.07930   0.04987   0.04514
   1    54     6         -0.06282  -0.01254   0.04943  -0.05568  -0.00693
   2    54     6          0.02986  -0.02649  -0.04853  -0.02425   0.05339
   3    54     6         -0.08632  -0.02299   0.08881  -0.06237  -0.03052
   1    55     6          0.05163  -0.00714  -0.05407   0.02062   0.02976
   2    55     6         -0.04176   0.03476   0.06123   0.03118  -0.07030
   3    55     6          0.13297   0.00663  -0.09142   0.12049  -0.00171
   1    56     1          0.08704   0.11706  -0.04973   0.09939  -0.01592
   2    56     1         -0.06091  -0.02545   0.08246   0.03766  -0.10183
   3    56     1          0.17049   0.13002  -0.14128   0.06688   0.09212
   1    57     6         -0.06262  -0.08583   0.03348  -0.09100   0.01887
   2    57     6          0.02678   0.02477  -0.03991  -0.01364   0.04801
   3    57     6         -0.06369  -0.09286   0.08756  -0.00086  -0.08722
   1    58     1         -0.10233  -0.01566   0.08286  -0.08125  -0.01638
   2    58     1          0.05278  -0.05351  -0.08176  -0.05288   0.09332
   3    58     1         -0.16837  -0.03801   0.15334  -0.12875  -0.03842
   1    59     6         -0.00454  -0.08547  -0.01931  -0.04953   0.03550
   2    59     6         -0.01038   0.05658   0.01753   0.01086  -0.01475
   3    59     6          0.04820  -0.08147  -0.00616   0.09565  -0.07261
   1    60     1          0.09506  -0.00491  -0.09363   0.05041   0.04370
   2    60     1         -0.06942   0.05951   0.10363   0.05407  -0.11883
   3    60     1          0.21864   0.01885  -0.16429   0.19173   0.01396
   1    61     1         -0.10588  -0.14535   0.05896  -0.14671   0.02700
   2    61     1          0.05210   0.04019  -0.07575  -0.02756   0.09209
   3    61     1         -0.13237  -0.16074   0.15667  -0.02556  -0.14119
   1    62     1         -0.00321  -0.14506  -0.03369  -0.07213   0.05421
   2    62     1         -0.01397   0.09829   0.02643   0.01612  -0.01934
   3    62     1          0.06851  -0.14075  -0.01234   0.14884  -0.11454
                          11        12        13        14        15
                           A         A         A         A         A
       Frequencies ---    98.8963  109.5276  112.3043  118.3851  147.5669
    Reduced masses ---     3.7554    7.1297    5.4665    4.9562    5.1653
   Force constants ---     0.0216    0.0504    0.0406    0.0409    0.0663
    IR Intensities ---     0.0004    0.0002    0.0059    0.2173    0.1816
 Coord Atom Element:
   1     1     6          0.00888  -0.00678  -0.00583  -0.02031   0.07143
   2     1     6         -0.00363  -0.00909  -0.00099   0.00677  -0.05373
   3     1     6         -0.01074  -0.00522   0.04229   0.04139   0.09174
   1     2     6         -0.10678  -0.02130   0.03502  -0.05354   0.01265
   2     2     6          0.06323  -0.02986   0.01210   0.03588  -0.09434
   3     2     6          0.04154  -0.01761   0.05890   0.06719   0.05027
   1     3     6         -0.11302  -0.02634   0.08824  -0.06931  -0.06944
   2     3     6          0.06640  -0.03748  -0.02480   0.03894  -0.04032
   3     3     6          0.04528  -0.01522   0.07928   0.08801  -0.01779
   1     4     6          0.00123  -0.03505   0.10553  -0.04785  -0.08241
   2     4     6          0.00115  -0.06719  -0.06886   0.01385   0.05160
   3     4     6         -0.00260  -0.00842   0.08012   0.08136  -0.03625
   1     5     6          0.12517  -0.01626   0.07946  -0.06276   0.00382
   2     5     6         -0.06320  -0.05045  -0.08678   0.01289   0.08059
   3     5     6         -0.05631   0.00144   0.06331   0.08009  -0.00279
   1     6     6          0.12738  -0.01666   0.02316  -0.05001   0.08265
   2     6     6         -0.06378  -0.03987  -0.05459   0.00591   0.02290
   3     6     6         -0.06000   0.00170   0.04232   0.05874   0.06513
   1     7     6          0.00515   0.00210  -0.04885   0.03886   0.05849
   2     7     6         -0.00323   0.01457   0.02934  -0.01884  -0.04641
   3     7     6         -0.00769  -0.00155  -0.00172  -0.02089   0.09707
   1     8     6          0.07260   0.00716  -0.03222   0.06390   0.07514
   2     8     6         -0.03231   0.04484   0.05831  -0.03120   0.03213
   3     8     6         -0.12428  -0.00108  -0.03646  -0.06213   0.06130
   1     9     6          0.06805   0.01327  -0.03926   0.07825   0.03856
   2     9     6         -0.03052   0.05161   0.06601  -0.03494   0.07114
   3     9     6         -0.11645  -0.00359  -0.09289  -0.07895  -0.04650
   1    10     6         -0.00571   0.03353  -0.05766   0.06609  -0.01288
   2    10     6         -0.00023   0.06888   0.04780  -0.02687   0.02490
   3    10     6          0.01121   0.00508  -0.11502  -0.05280  -0.10938
   1    11     6         -0.07785   0.02572  -0.07779   0.07345  -0.04296
   2    11     6          0.02381   0.04190   0.02407  -0.02919  -0.05188
   3    11     6          0.13026   0.01043  -0.08110  -0.06479  -0.05064
   1    12     6         -0.07309   0.02343  -0.07406   0.06066  -0.00451
   2    12     6          0.02230   0.03319   0.01053  -0.02253  -0.08744
   3    12     6          0.11909   0.00663  -0.02586  -0.04747   0.05767
   1    13     1         -0.18816  -0.02532   0.02184  -0.04943   0.01681
   2    13     1          0.11596  -0.04594   0.05216   0.04674  -0.17102
   3    13     1          0.07266  -0.01103   0.05680   0.06293   0.06644
   1    14     1         -0.20219  -0.01842   0.10854  -0.07616  -0.12251
   2    14     1          0.11913  -0.02234  -0.00668   0.05453  -0.08050
   3    14     1          0.08945  -0.00083   0.09630   0.10196  -0.05475
   1    15     1          0.21321  -0.00652   0.08699  -0.06770   0.01988
   2    15     1         -0.10506  -0.03748  -0.12408   0.00432   0.15034
   3    15     1         -0.09597  -0.00751   0.06772   0.08495  -0.02701
   1    16     1          0.21927  -0.03212  -0.00192  -0.04652   0.15208
   2    16     1         -0.10648  -0.05140  -0.06848  -0.00861   0.05212
   3    16     1         -0.09208  -0.00994   0.02916   0.04675   0.09482
   1    17     1          0.11911   0.02034  -0.01453   0.06009   0.11966
   2    17     1         -0.05530   0.05474   0.07337  -0.03302   0.07295
   3    17     1         -0.21837   0.00996  -0.02053  -0.06179   0.11071
   1    18     1          0.12056   0.01464  -0.02903   0.08514   0.05269
   2    18     1         -0.05692   0.03414   0.08991  -0.04221   0.14023
   3    18     1         -0.20182  -0.00434  -0.11077  -0.08979  -0.07059
   1    19     1         -0.13975   0.00901  -0.09996   0.07640  -0.10055
   2    19     1          0.04229   0.03395   0.01016  -0.02910  -0.09072
   3    19     1          0.22281   0.00681  -0.09176  -0.06677  -0.08169
   1    20     1         -0.12550   0.02678  -0.08828   0.05479  -0.02959
   2    20     1          0.03394   0.05088  -0.01437  -0.01537  -0.15348
   3    20     1          0.20892  -0.00045  -0.00187  -0.03702   0.10179
   1    21     6         -0.00078   0.08335   0.06055  -0.09864  -0.01538
   2    21     6          0.00464   0.11788  -0.06033   0.05905  -0.00893
   3    21     6         -0.00976   0.01493   0.11667   0.03755   0.10893
   1    22     6         -0.00042   0.06299   0.01829  -0.04735  -0.02668
   2    22     6         -0.01252   0.10610  -0.07306   0.08004  -0.00140
   3    22     6          0.08790  -0.00049   0.05965   0.07851   0.03766
   1    23     6         -0.00249   0.05369  -0.03018   0.01326  -0.03592
   2    23     6         -0.01209   0.10367  -0.02542   0.05038   0.03009
   3    23     6          0.09432  -0.00055  -0.05130   0.06118  -0.09521
   1    24     6         -0.00512   0.04933  -0.03381   0.01514  -0.03693
   2    24     6          0.00090   0.08506   0.03152  -0.00411   0.04505
   3    24     6          0.01007   0.00467  -0.10192   0.00449  -0.14628
   1    25     6         -0.00240   0.07257   0.00944  -0.03904  -0.02985
   2    25     6          0.02070   0.10169   0.04517  -0.03239   0.04358
   3    25     6         -0.08441   0.01384  -0.05329   0.00725  -0.11268
   1    26     6         -0.00139   0.08100   0.05860  -0.09698  -0.01694
   2    26     6          0.02220   0.10319  -0.00102   0.00200   0.01841
   3    26     6         -0.09790   0.01900   0.05727   0.02652   0.02199
   1    27     1         -0.00024   0.06335   0.01826  -0.04747  -0.02692
   2    27     1         -0.02321   0.08957  -0.12088   0.12760  -0.01912
   3    27     1          0.15564  -0.01216   0.08996   0.11233   0.08218
   1    28     1          0.00327   0.06215  -0.06369   0.05958  -0.04139
   2    28     1         -0.02187   0.10888  -0.03719   0.07438   0.03499
   3    28     1          0.16159  -0.00450  -0.09026   0.07950  -0.13340
   1    29     1         -0.00410   0.07218   0.00786  -0.03986  -0.03191
   2    29     1          0.04017   0.12075   0.09188  -0.08044   0.05997
   3    29     1         -0.14503   0.01872  -0.09295  -0.01585  -0.16369
   1    30     1          0.00163   0.07379   0.09513  -0.14082  -0.00777
   2    30     1          0.03665   0.09799   0.01539  -0.02224   0.01846
   3    30     1         -0.17210   0.02720   0.08730   0.02053   0.05635
   1    31     6         -0.00067   0.08838   0.07485  -0.09014   0.01500
   2    31     6          0.00396   0.12843  -0.07152   0.06253  -0.03203
   3    31     6         -0.00988   0.02308   0.12985  -0.00721   0.13684
   1    32     6         -0.01578   0.08753   0.04329  -0.08913  -0.00660
   2    32     6          0.01671   0.15058  -0.05820  -0.01121  -0.07221
   3    32     6         -0.02893   0.02564   0.08348  -0.03911   0.08330
   1    33     6          0.01428   0.09044   0.05657  -0.01040   0.05009
   2    33     6         -0.01530   0.12908  -0.03982   0.09255   0.01541
   3    33     6          0.01576   0.02765   0.09022  -0.00021   0.10664
   1    34     6         -0.01474   0.07725  -0.03736   0.01880  -0.01944
   2    34     6          0.01514   0.15952   0.01341  -0.07792  -0.04290
   3    34     6         -0.02220   0.02619  -0.04407  -0.03120  -0.04265
   1    35     1         -0.03012   0.09838   0.06114  -0.16251  -0.03383
   2    35     1          0.02721   0.15961  -0.08917  -0.03127  -0.11685
   3    35     1         -0.04590   0.02212   0.12090  -0.05543   0.11220
   1    36     6          0.02013   0.07994  -0.02405   0.10134   0.04000
   2    36     6         -0.02086   0.13726   0.03115   0.02817   0.04745
   3    36     6          0.02807   0.03018  -0.03711   0.01052  -0.01761
   1    37     1          0.02317   0.09340   0.08714  -0.02136   0.07049
   2    37     1         -0.02894   0.12508  -0.05333   0.15766   0.04606
   3    37     1          0.02462   0.03108   0.13259   0.00983   0.15182
   1    38     6          0.00469   0.07432  -0.08237   0.12213  -0.00739
   2    38     6         -0.00604   0.15570   0.06766  -0.06471   0.02709
   3    38     6          0.00829   0.02835  -0.11950   0.00743  -0.10513
   1    39     1         -0.02782   0.07297  -0.07512   0.02673  -0.04986
   2    39     1          0.02927   0.16684   0.03418  -0.14469  -0.06762
   3    39     1         -0.03779   0.02201  -0.09676  -0.04420  -0.10105
   1    40     1          0.03623   0.07218  -0.04911   0.17440   0.05947
   2    40     1         -0.03618   0.12931   0.06669   0.04728   0.09799
   3    40     1          0.05075   0.03391  -0.08350   0.02923  -0.05573
   1    41     1          0.00817   0.06484  -0.16009   0.21377  -0.03339
   2    41     1         -0.00958   0.16138   0.13559  -0.12244   0.06374
   3    41     1          0.01633   0.02774  -0.23752   0.03131  -0.21641
   1    42     6         -0.00447  -0.04887   0.08523   0.00629  -0.11015
   2    42     6          0.00242  -0.08483  -0.05412  -0.01243   0.07175
   3    42     6          0.00455  -0.00797   0.06058   0.03328  -0.07154
   1    43     6          0.06917  -0.06070   0.02817   0.00357  -0.07793
   2    43     6         -0.04175  -0.10110  -0.04672  -0.07972   0.05524
   3    43     6          0.03398  -0.01833   0.02307  -0.00705  -0.05803
   1    44     6         -0.08383  -0.06378   0.05029   0.05645  -0.08001
   2    44     6          0.04157  -0.10511   0.00107   0.03317   0.04809
   3    44     6         -0.01932  -0.00221   0.02792   0.00579  -0.05816
   1    45     6          0.07123  -0.06913  -0.06500   0.02159   0.02524
   2    45     6         -0.04423  -0.10407   0.01487  -0.07657  -0.00620
   3    45     6          0.04194  -0.01850  -0.04930  -0.08886  -0.01380
   1    46     1          0.12083  -0.06805   0.04994  -0.02442  -0.10991
   2    46     1         -0.07465  -0.11185  -0.08821  -0.13343   0.07930
   3    46     1          0.05399  -0.01224   0.04695   0.02087  -0.07294
   1    47     6         -0.08662  -0.06771  -0.04260   0.07195   0.02065
   2    47     6          0.04336  -0.11021   0.06588   0.03216  -0.01923
   3    47     6         -0.01451  -0.00162  -0.04456  -0.07666  -0.01456
   1    48     1         -0.14113  -0.06804   0.09202   0.07722  -0.11492
   2    48     1          0.06732  -0.11803  -0.00162   0.07834   0.06608
   3    48     1         -0.04597  -0.01221   0.05597   0.04255  -0.07388
   1    49     6         -0.00562  -0.07774  -0.09880   0.03463   0.08489
   2    49     6         -0.00099  -0.12223   0.07091  -0.01061  -0.05190
   3    49     6          0.01724  -0.01152  -0.08112  -0.12605   0.01289
   1    50     1          0.12991  -0.07081  -0.10194   0.01376   0.05804
   2    50     1         -0.07887  -0.09008   0.01018  -0.12844  -0.01847
   3    50     1          0.06295  -0.01182  -0.07586  -0.12123   0.00099
   1    51     1         -0.15011  -0.05806  -0.05887   0.11022   0.04828
   2    51     1          0.07433  -0.10382   0.10729   0.07664  -0.04477
   3    51     1         -0.03210  -0.00524  -0.06665  -0.09989  -0.00090
   1    52     6         -0.00066  -0.08162  -0.09783  -0.00246   0.10251
   2    52     6         -0.00269  -0.13441   0.07335   0.01091  -0.06705
   3    52     6          0.01406  -0.01446  -0.10068  -0.13577   0.05024
   1    53     6         -0.01747  -0.08858  -0.07618   0.01373   0.09143
   2    53     6          0.00406  -0.14709   0.02166   0.06567  -0.00378
   3    53     6         -0.02135  -0.02749  -0.07216  -0.07779   0.04905
   1    54     6          0.02164  -0.08027  -0.04677  -0.04729   0.04600
   2    54     6         -0.00542  -0.14189   0.07585  -0.04229  -0.09089
   3    54     6          0.03466  -0.00832  -0.06619  -0.09321   0.04155
   1    55     6         -0.01824  -0.08645   0.01777   0.01102  -0.00108
   2    55     6          0.00722  -0.15040  -0.04607   0.04847   0.05748
   3    55     6         -0.04469  -0.03371   0.02924   0.07523   0.00141
   1    56     1         -0.02822  -0.09976  -0.12044   0.04250   0.14219
   2    56     1          0.00748  -0.15217   0.01903   0.11546   0.01624
   3    56     1         -0.03450  -0.02886  -0.10420  -0.12583   0.06117
   1    57     6          0.02449  -0.07610   0.04759  -0.05188  -0.04824
   2    57     6         -0.00479  -0.14615   0.00903  -0.06385  -0.03342
   3    57     6          0.01876  -0.01344   0.03530   0.05988  -0.00612
   1    58     1          0.03372  -0.07774  -0.06420  -0.06819   0.05584
   2    58     1         -0.00440  -0.14482   0.12031  -0.07974  -0.14540
   3    58     1          0.06182  -0.00409  -0.09162  -0.15313   0.04598
   1    59     6          0.00298  -0.08139   0.08768  -0.01119  -0.07813
   2    59     6          0.00373  -0.15251  -0.05859  -0.02588   0.04770
   3    59     6         -0.02421  -0.02697   0.09813   0.15963  -0.04232
   1    60     1         -0.03383  -0.08993   0.04148   0.03371  -0.01689
   2    60     1          0.01161  -0.14880  -0.09507   0.08687   0.11833
   3    60     1         -0.07707  -0.04061   0.06590   0.13571  -0.01469
   1    61     1          0.04075  -0.06591   0.09754  -0.07866  -0.10497
   2    61     1         -0.00902  -0.14341   0.00579  -0.11600  -0.04873
   3    61     1          0.03733  -0.00931   0.07900   0.11022  -0.02980
   1    62     1          0.00265  -0.07838   0.16975  -0.00088  -0.15750
   2    62     1          0.00620  -0.15367  -0.11829  -0.05040   0.10029
   3    62     1         -0.04078  -0.03119   0.19603   0.29360  -0.10017
                          16        17        18        19        20
                           A         A         A         A         A
       Frequencies ---   159.5941  216.2697  231.8591  239.7246  265.8195
    Reduced masses ---     5.0878    7.0479    5.4884    5.3882    4.9230
   Force constants ---     0.0764    0.1942    0.1738    0.1824    0.2050
    IR Intensities ---     0.0106    0.5453    0.0008    0.0087    0.4832
 Coord Atom Element:
   1     1     6          0.11811   0.08896   0.01897  -0.01904  -0.05836
   2     1     6         -0.05873   0.14658  -0.00897   0.00137   0.03440
   3     1     6         -0.10124   0.01012  -0.07515   0.12262  -0.01558
   1     2     6          0.07551   0.08553  -0.05879  -0.11085  -0.03493
   2     2     6         -0.00201   0.13353   0.01969   0.00253   0.07655
   3     2     6         -0.05250  -0.00288  -0.06251   0.12085   0.02791
   1     3     6         -0.04303   0.07358  -0.11023  -0.09858   0.05478
   2     3     6          0.05326   0.13069   0.05880   0.00259   0.01311
   3     3     6          0.04417   0.00081  -0.05712   0.02842   0.07369
   1     4     6         -0.10778   0.04868  -0.08098   0.00928   0.09847
   2     4     6          0.05110   0.09554   0.05060   0.00515  -0.06872
   3     4     6          0.08224   0.01253  -0.06435  -0.03732   0.06549
   1     5     6         -0.07196   0.06826  -0.10607  -0.04949   0.00676
   2     5     6          0.00016   0.12519   0.06847   0.08756  -0.07267
   3     5     6          0.03611   0.02715  -0.05631   0.04016   0.06274
   1     6     6          0.04544   0.07331  -0.04716  -0.06699  -0.08631
   2     6     6         -0.05782   0.13325   0.04355   0.08132  -0.01660
   3     6     6         -0.06103   0.02238  -0.05964   0.13165   0.01563
   1     7     6          0.10885   0.08747   0.08105   0.09766   0.00418
   2     7     6         -0.05306   0.14622  -0.05441  -0.05303   0.00497
   3     7     6         -0.10718   0.01701  -0.00498   0.00214  -0.06667
   1     8     6          0.07044   0.08751   0.05270   0.14574   0.00768
   2     8     6         -0.00264   0.12379  -0.04928  -0.01703  -0.05789
   3     8     6         -0.04418   0.01884   0.05720  -0.08211  -0.06217
   1     9     6         -0.03915   0.08233   0.02549   0.06934   0.02284
   2     9     6          0.04536   0.11551  -0.03067   0.03214  -0.07698
   3     9     6          0.06599   0.03025   0.11561  -0.09327   0.05206
   1    10     6         -0.09915   0.05468   0.02434  -0.04137   0.02981
   2    10     6          0.04066   0.09044  -0.03084   0.02736  -0.03408
   3    10     6          0.10455   0.02344   0.09973  -0.01580   0.12959
   1    11     6         -0.06843   0.06174   0.02234   0.01573   0.07291
   2    11     6         -0.00509   0.13376  -0.03873  -0.05107   0.00481
   3    11     6          0.05725   0.02835   0.11466  -0.10155   0.06232
   1    12     6          0.04007   0.06575   0.05752   0.09589   0.06217
   2    12     6         -0.05609   0.14198  -0.04253  -0.09697   0.03151
   3    12     6         -0.05420   0.02653   0.05871  -0.09141  -0.05055
   1    13     1          0.12105   0.08699  -0.05781  -0.14230  -0.05220
   2    13     1          0.01130   0.11949   0.00852  -0.03606   0.14940
   3    13     1         -0.07952  -0.00010  -0.06097   0.14739   0.02016
   1    14     1         -0.07012   0.08513  -0.13482  -0.12987   0.08819
   2    14     1          0.09582   0.14892   0.06240  -0.03073   0.05167
   3    14     1          0.08151   0.01837  -0.05568  -0.00208   0.10956
   1    15     1         -0.12463   0.07531  -0.12231  -0.03141  -0.01442
[...]
 000168,-0.00000386,0.00000097,0.00000262,-0.00000147,0.00000178,-0.000
 00932,-0.00001816,-0.00000096,0.00002343,0.00003557,0.00000415,-0.0000
 0686,-0.00001736,-0.00000632,-0.00000362,0.00000015,-0.00000327,0.0000
 0621,0.00000951,0.00000142,-0.00000280,-0.00000483,0.00000026,0.000001
 23,-0.00000164,0.00000019,-0.00000038,-0.00000055,0.00000025,-0.000001
 38,0.00000020,-0.00000056,-0.00000391,-0.00000492,-0.00000272,-0.00000
 245,-0.00000184,-0.00000205,0.00000203,0.00000248,0.00000433,-0.000000
 85,0.00000548,-0.00000331,-0.00000216,-0.00000324,0.00000180,0.0000017
 1,0.00000024,0.00000099,-0.00000087,-0.00000035,-0.00000043,-0.0000002
 9,-0.00000147,0.00000043,-0.00000051,0.00000209,-0.00000003,-0.0000001
 4,-0.00000029,0.00000002,0.00000059,-0.00000061,-0.00000032,-0.0000008
 8,-0.00000198,0.00000019,0.00000242,0.00000355,0.00000044,-0.00000195,
 -0.00000196,-0.00000053,-0.00000072,0.00000025,0.00000028,-0.00000029,
 -0.00000013,-0.00000012,0.00000073,0.00000013,-0.00000008,-0.00000014,
 0.00000090,0.00000022,0.00000002,-0.00000068,-0.00000017,0.00000100,0.
 00000182,0.00000030,-0.00000007,-0.00000120,-0.00000008,-0.00000072,-0
 .00000088,0.00000009,0.00000018,0.00000005,-0.00000012,0.00000019,0.00
 000023,-0.00000034,0.,0.00000010,0.00000047,-0.00000013,0.00000046,0.0
 0000013,-0.00000021,-0.00000053,0.00000007,-0.00000018,0.,-0.00000009,
 -0.00000003,-0.00000027,-0.00000038,-0.00000025,-0.00000022,-0.0000001
 4,-0.00001151,-0.00000903,-0.00000983,0.00001201,-0.00001002,-0.000025
 81,0.00001736,-0.00002160,0.00012282,0.00005754,-0.00005846,0.00010445
 ,-0.00001152,-0.00001673,-0.00001014,-0.00012189,-0.00033220,-0.000177
 20,-0.00002513,-0.00003592,-0.00000126,-0.00104482,0.00048457,0.000779
 03,-0.00000161,0.00004595,-0.00003471,-0.00000920,0.00002266,0.0000210
 6,-0.00317202,-0.00371084,-0.00329557,-0.02538042,0.00167992,0.0123938
 2,0.00008680,-0.00135396,-0.00047170,-0.03564011,-0.06327940,0.0077466
 1,0.00113547,0.00028767,0.00136100,0.00066910,-0.00237143,-0.00460501,
 0.00017907,-0.00001967,0.00045706,0.02200124,0.00794828,-0.00954103,0.
 03975669,0.06024761,0.00000056,0.00000103,-0.00000038,-0.00000072,0.00
 000099,-0.00000294,0.00000398,0.00000441,0.00000392,-0.00001707,-0.000
 01333,-0.00000745,0.00000515,0.00000954,0.00000396,0.00000050,-0.00000
 038,0.00000037,-0.00000391,-0.00000513,-0.00000114,0.00000210,0.000001
 77,0.00000003,-0.00000059,0.00000122,-0.00000026,-0.00000016,-0.000000
 10,-0.00000037,0.00000090,-0.00000002,0.00000054,0.00000250,0.00000298
 ,0.00000112,0.00000031,-0.00000001,0.00000112,-0.00000147,-0.00000023,
 -0.00000251,0.00000027,-0.00000206,0.00000052,0.00000129,0.00000203,-0
 .00000109,-0.00000102,0.00000035,-0.00000050,0.00000023,-0.00000005,0.
 00000026,0.00000018,0.00000095,-0.00000019,0.00000013,-0.00000132,0.00
 000024,-0.00000011,-0.00000002,-0.00000006,-0.00000028,0.00000057,0.00
 000001,0.00000055,0.00000120,-0.00000060,-0.00000172,-0.00000255,-0.00
 000027,0.00000119,0.00000169,0.00000006,0.00000078,-0.00000022,-0.0000
 0025,0.00000014,-0.00000002,0.00000026,-0.00000043,0.,0.00000027,0.000
 00012,-0.00000079,0.00000005,-0.00000018,0.00000053,0.00000037,-0.0000
 0071,-0.00000160,0.00000005,-0.00000045,0.00000124,-0.00000010,0.00000
 017,0.00000079,-0.00000037,-0.00000005,0.00000008,-0.00000004,0.000000
 12,-0.00000037,0.00000037,0.00000005,0.00000006,-0.00000046,0.00000037
 ,-0.00000052,0.00000002,-0.00000009,0.00000038,-0.00000036,0.00000024,
 -0.00000011,0.00000028,0.00000011,-0.00000002,0.00000044,0.00000031,0.
 00000022,0.00000034,0.00000921,0.00001249,0.00000280,0.00000433,-0.000
 02040,0.00000454,0.00000444,-0.00003740,0.00000126,-0.00002559,0.00002
 419,-0.00005432,-0.00000083,-0.00000113,0.00000276,-0.00011702,-0.0000
 6041,-0.00001108,0.00000414,-0.00000589,0.00000126,-0.00011105,-0.0000
 7895,0.00022468,-0.00003787,-0.00004630,-0.00000461,-0.00001227,-0.000
 00952,-0.00002171,0.00174482,-0.00278961,0.00543021,-0.00456370,-0.000
 94030,0.00506093,-0.00045571,-0.00029376,-0.00034748,0.11593384,0.0081
 2331,-0.09575412,-0.00158941,0.00154000,-0.00269340,0.00283659,-0.0051
 6416,0.00343152,-0.00040492,0.00042959,-0.00082896,0.01553890,0.003687
 93,-0.00322891,-0.12769689,-0.00593885,0.09145484,-0.00000120,-0.00000
 185,-0.00000075,0.00000060,0.00000045,-0.00000106,-0.00000145,-0.00000
 244,-0.00000044,0.00000052,0.00001123,-0.00000030,-0.00000157,-0.00000
 116,0.00000285,0.00000078,0.00000105,0.00000112,-0.00000067,-0.0000005
 7,-0.00000040,0.00000068,-0.00000036,0.00000031,-0.00000007,0.00000084
 ,-0.00000018,-0.00000010,-0.00000071,-0.00000019,0.00000052,0.00000005
 ,0.00000033,0.00000020,0.00000074,0.,-0.00000013,-0.00000072,-0.000000
 26,0.00000039,0.00000005,-0.00000028,0.00000029,-0.00000040,-0.0000000
 6,0.00000046,0.00000029,-0.00000047,-0.00000032,0.00000024,-0.00000028
 ,-0.00000016,-0.00000020,0.00000004,-0.00000014,0.00000045,-0.00000008
 ,0.00000011,-0.00000031,0.00000024,-0.00000017,-0.00000016,-0.00000009
 ,-0.00000026,0.00000041,0.,0.00000062,0.00000063,-0.00000017,-0.000001
 02,-0.00000074,-0.00000014,0.00000014,0.00000049,0.00000003,0.00000061
 ,-0.00000016,-0.00000010,0.00000013,-0.00000010,0.00000006,-0.00000017
 ,-0.00000014,0.00000007,0.00000020,-0.00000025,0.00000005,-0.00000012,
 0.00000024,0.00000017,-0.00000030,-0.00000091,0.00000005,-0.00000018,0
 .00000060,-0.00000002,0.00000011,0.00000014,-0.00000020,-0.00000022,-0
 .00000019,0.00000024,-0.00000011,-0.00000007,0.00000018,0.00000031,0.0
 0000004,-0.00000016,0.00000008,-0.00000009,-0.00000006,0.00000010,0.00
 000003,-0.00000021,0.00000019,0.00000006,-0.00000003,-0.00000009,0.000
 00008,0.00000022,0.00000008,0.00000029,0.00000014,-0.00000160,-0.00001
 118,0.00000895,0.00000399,0.00003024,-0.00007742,-0.00000278,-0.000001
 06,0.00002200,-0.00012986,-0.00012506,0.00003354,-0.00000698,-0.000018
 90,-0.00000165,-0.00004117,0.00008545,-0.00006476,-0.00000010,-0.00000
 572,0.00000089,0.00059537,-0.00041707,-0.00042539,0.00001127,0.0000061
 8,-0.00002247,0.00002381,0.00001572,0.00004178,0.00027811,-0.00423838,
 0.00200813,-0.00094402,-0.00096392,-0.00012333,0.01049688,-0.01216465,
 -0.00895314,-0.00343877,-0.00276979,0.00441288,-0.00012073,0.00029316,
 -0.00046022,-0.10719074,0.08398457,0.07259312,-0.00013032,0.00115151,-
 0.00165413,-0.00607275,0.02271541,0.01472160,-0.00043976,0.00115825,0.
 00085432,0.10703159,-0.00000183,-0.00000256,-0.00000199,0.00000107,-0.
 00000704,0.00000632,-0.00001637,-0.00001976,0.00000393,0.00003070,0.00
 004136,0.00001181,-0.00001559,-0.00002617,-0.00001188,-0.00000518,0.00
 000156,-0.00000338,0.00000968,0.00001620,0.00000258,-0.00000520,-0.000
 00922,0.00000210,0.00000138,-0.00000273,0.00000091,-0.00000060,-0.0000
 0033,0.00000027,-0.00000363,0.00000070,-0.00000113,-0.00000533,-0.0000
 0814,-0.00000259,-0.00000190,-0.00000353,-0.00000374,0.00000723,0.0000
 0180,0.00000724,0.00000251,0.00000681,-0.00000556,-0.00000193,-0.00000
 645,0.00000270,0.00000370,0.00000038,0.00000066,-0.00000141,-0.0000010
 3,-0.00000150,0.00000030,-0.00000246,0.00000050,-0.00000094,0.00000340
 ,-0.00000153,-0.00000013,-0.00000004,0.00000016,0.00000082,-0.00000117
 ,-0.00000035,-0.00000163,-0.00000484,0.00000039,0.00000456,0.00000696,
 0.00000090,-0.00000218,-0.00000295,-0.00000098,-0.00000181,0.00000027,
 0.00000045,-0.00000112,-0.00000032,-0.00000035,0.00000160,0.00000056,-
 0.00000037,-0.00000091,0.00000149,0.00000028,0.00000038,-0.00000101,-0
 .00000024,0.00000174,0.00000364,0.00000052,-0.00000037,-0.00000242,-0.
 00000031,-0.00000116,-0.00000122,-0.00000026,0.00000069,0.00000035,-0.
 00000092,0.00000068,0.00000041,-0.00000039,-0.00000065,0.00000005,0.00
 000075,-0.00000012,0.00000042,0.00000047,-0.00000075,-0.00000082,0.000
 00011,-0.00000059,-0.00000040,0.00000020,0.00000014,-0.00000034,-0.000
 00035,-0.00000014,-0.00000054,-0.00000017,0.00000244,-0.00000520,-0.00
 000320,-0.00004929,-0.00000059,-0.00010031,-0.00003323,0.00000013,0.00
 000953,-0.00021244,-0.00038853,0.00010837,-0.00002354,-0.00003880,-0.0
 0001438,-0.00004638,-0.00006418,-0.00007139,-0.00001734,-0.00002809,0.
 00000663,0.00095882,-0.00028005,-0.00084402,0.00002920,-0.00000517,0.0
 0001243,0.00001982,-0.00002054,0.00000595,-0.00477278,-0.00220412,-0.0
 0166313,-0.00079201,-0.00007727,0.00060179,0.01382572,-0.01519360,-0.0
 1494818,-0.00220192,0.00174306,-0.00110941,0.00028463,-0.00014950,0.00
 029761,0.08410949,-0.21079128,-0.11856461,0.00061427,0.00026131,0.0016
 1008,-0.00328464,0.00724664,0.00349671,-0.00025052,0.00028283,0.000175
 56,-0.08921594,0.21972935,-0.00000096,-0.00000140,-0.00000153,0.000000
 76,-0.00000205,0.00000140,-0.00000947,-0.00001432,0.00000244,0.0000098
 0,0.00003331,-0.00000043,-0.00000552,-0.00001239,0.00000020,-0.0000019
 5,0.00000126,-0.00000325,0.00000454,0.00000945,0.00000087,-0.00000247,
 -0.00000576,0.00000095,0.00000098,-0.00000145,0.00000055,-0.00000038,0
 .00000022,0.00000002,-0.00000200,0.00000053,-0.00000075,-0.00000178,-0
 .00000433,-0.00000103,-0.00000133,-0.00000260,-0.00000217,0.00000343,0
 .00000092,0.00000234,0.00000022,0.00000335,-0.00000341,-0.00000030,-0.
 00000170,0.00000156,0.00000202,0.00000059,0.00000053,-0.00000124,-0.00
 000080,-0.00000095,0.00000038,-0.00000100,0.00000041,-0.00000085,0.000
 00154,-0.00000071,-0.00000003,0.00000009,0.00000023,0.00000075,-0.0000
 0084,-0.00000069,-0.00000106,-0.00000274,-0.00000032,0.00000228,0.0000
 0392,0.00000046,-0.00000101,-0.00000153,-0.00000097,-0.00000112,0.0000
 0008,-0.00000009,-0.00000082,-0.00000026,0.00000021,0.00000099,0.00000
 041,0.00000019,-0.00000043,0.00000061,0.00000041,0.00000015,-0.0000003
 5,0.00000028,0.00000108,0.00000211,0.00000041,-0.00000073,-0.00000085,
 -0.00000037,-0.00000113,-0.00000053,-0.00000059,0.00000039,0.00000038,
 -0.00000099,0.00000079,-0.00000017,0.00000005,-0.00000060,0.00000042,0
 .00000031,0.00000033,0.00000005,0.00000065,-0.00000072,-0.00000040,-0.
 00000036,-0.00000022,-0.00000043,0.00000053,0.00000040,-0.00000055,-0.
 00000003,0.00000008,-0.00000043,0.00000025,-0.00000513,-0.00001710,-0.
 00000147,0.00002423,0.00001639,-0.00002291,0.00001204,0.00000598,0.000
 01402,-0.00006883,0.00003570,0.00004415,0.00000118,-0.00001150,-0.0000
 0096,-0.00004340,0.00001705,-0.00008433,-0.00000348,-0.00000575,0.0000
 0443,0.00025312,-0.00002514,0.00002002,0.00001141,0.00001894,-0.000019
 84,0.00002770,0.00005548,0.00001671,0.00168330,-0.00222837,0.00573344,
 -0.00023359,0.00051914,-0.00008749,0.00199860,-0.00134208,0.00150180,0
 .00479489,-0.00053669,0.00443576,-0.00043951,0.00030939,-0.00086271,0.
 07216909,-0.11855041,-0.12629334,-0.00177995,0.00134432,-0.00268839,0.
 00405675,-0.01037433,-0.00330407,0.00023377,-0.00059074,-0.00020260,-0
 .08094452,0.12982230,0.12430724,0.00000031,-0.00000005,0.00000030,-0.0
 0000106,-0.00000059,0.00000215,-0.00000483,-0.00000869,0.00000034,0.00
 001924,0.00001075,-0.00000080,-0.00000267,-0.00000860,-0.00000127,-0.0
 0000290,0.00000006,-0.00000243,0.00000403,0.00000674,0.00000050,-0.000
 00199,-0.00000373,0.00000024,0.00000091,-0.00000137,0.00000045,-0.0000
 0002,0.00000030,0.00000007,-0.00000141,0.00000016,-0.00000080,-0.00000
 165,-0.00000346,-0.00000119,-0.00000137,-0.00000143,-0.00000172,0.0000
 0260,0.00000077,0.00000207,0.00000002,0.00000304,-0.00000327,-0.000000
 72,-0.00000128,0.00000119,0.00000149,0.00000029,0.00000081,-0.00000103
 ,-0.00000042,-0.00000059,0.00000015,-0.00000082,0.00000049,-0.00000069
 ,0.00000136,-0.00000026,0.00000012,0.00000009,0.00000021,0.00000046,-0
 .00000072,-0.00000039,-0.00000079,-0.00000196,0.00000005,0.00000184,0.
 00000341,0.00000048,-0.00000103,-0.00000146,-0.00000072,-0.00000092,-0
 .00000003,-0.00000006,-0.00000068,-0.00000009,0.,0.00000090,0.00000016
 ,-0.00000001,-0.00000027,0.00000059,0.00000030,0.00000016,-0.00000036,
 0.00000009,0.00000108,0.00000177,0.00000006,-0.00000034,-0.00000085,-0
 .00000015,-0.00000080,-0.00000067,-0.00000037,0.00000031,0.00000012,-0
 .00000071,0.00000042,0.00000009,0.00000002,-0.00000036,0.00000023,0.00
 000031,0.00000001,0.00000016,0.00000049,-0.00000034,-0.00000048,-0.000
 00025,-0.00000036,-0.00000029,0.00000032,0.00000013,-0.00000018,0.0000
 0003,0.00000002,-0.00000026,0.00000005,-0.00002890,0.00000766,0.000063
 49,0.00004074,0.00005014,-0.00006750,0.00000506,-0.00005639,-0.0000807
 1,-0.00004824,-0.00012603,0.00002195,-0.00000728,-0.00000544,-0.000006
 26,0.00005770,0.00006111,0.00006929,-0.00000466,0.00000313,0.00000070,
 -0.00010695,0.00015385,-0.00040076,0.00001672,-0.00001111,-0.00003247,
 0.00001933,0.00002276,-0.00006752,-0.00085609,0.00082843,0.00045801,0.
 00084223,0.00126626,0.00401051,-0.00305769,-0.00059578,0.00526566,0.01
 056616,0.01248202,0.00154926,0.00038849,0.00068039,0.00017179,-0.00846
 166,-0.02576319,-0.00513663,-0.00055778,-0.00132113,-0.00017821,-0.123
 35853,-0.12336660,-0.00828685,-0.00022207,0.00034510,-0.00190863,0.000
 07992,0.00105992,-0.00174094,0.12468555,0.00000004,0.00000026,-0.00000
 011,0.00000122,-0.00000404,0.00000364,-0.00000948,-0.00001304,-0.00000
 117,0.00000843,0.00003220,0.00000442,-0.00000702,-0.00001453,-0.000003
 70,-0.00000067,-0.00000094,-0.00000419,0.00000672,0.00001171,0.0000018
 1,-0.00000397,-0.00000557,0.00000030,0.00000133,-0.00000255,0.00000055
 ,0.00000014,0.00000053,0.00000045,-0.00000253,0.00000015,-0.00000148,-
 0.00000345,-0.00000605,-0.00000185,-0.00000172,-0.00000178,-0.00000267
 ,0.00000352,0.00000169,0.00000582,-0.00000084,0.00000548,-0.00000352,-
 0.00000151,-0.00000326,0.00000217,0.00000246,0.,0.00000123,-0.00000124
 ,-0.00000040,-0.00000081,0.00000009,-0.00000173,0.00000068,-0.00000085
 ,0.00000265,-0.00000066,0.00000024,0.00000006,0.00000027,0.00000082,-0
 .00000129,-0.00000046,-0.00000145,-0.00000325,0.00000052,0.00000355,0.
 00000568,0.00000072,-0.00000203,-0.00000300,-0.00000081,-0.00000182,0.
 00000028,0.00000018,-0.00000083,-0.00000009,-0.00000019,0.00000126,0.0
 0000025,-0.00000020,-0.00000040,0.00000132,0.00000028,0.00000031,-0.00
 000087,-0.00000024,0.00000176,0.00000337,0.00000003,0.00000011,-0.0000
 0201,-0.00000013,-0.00000105,-0.00000135,0.00000001,0.00000041,0.00000
 013,-0.00000075,0.00000037,0.00000039,-0.00000033,-0.00000047,0.000000
 21,0.00000071,-0.00000030,0.00000061,0.00000052,-0.00000031,-0.0000007
 9,0.00000008,-0.00000060,-0.00000022,0.00000012,0.00000008,-0.00000023
 ,-0.00000039,-0.00000027,-0.00000054,-0.00000025,0.00002517,-0.0000060
 3,-0.00006354,-0.00006352,-0.00003990,0.00004689,0.00003041,0.00004409
 ,0.00006310,0.00002425,0.00006131,-0.00002959,0.00000271,-0.00000619,-
 0.00000374,-0.00007310,-0.00010825,-0.00001517,-0.00000374,-0.00001079
 ,0.00000579,0.00016793,-0.00006637,0.00030486,0.00000722,0.00001155,0.
 00006047,-0.00001902,0.00001986,-0.00000477,0.00085266,0.00027423,-0.0
 0004142,0.00196753,-0.00084540,-0.00460082,-0.00135308,0.00247626,-0.0
 0141223,-0.01330494,-0.01480328,-0.00073103,-0.00068556,-0.00084451,-0
 .00009163,0.00003527,0.00045934,-0.00121164,0.00006397,-0.00006756,-0.
 00012761,-0.12332527,-0.27134262,-0.03697103,0.00088414,0.00022499,0.0
 0139044,0.00048429,0.00000273,0.00153506,0.13429262,0.28456711,0.00000
 058,-0.00000014,0.00000038,-0.00000246,0.00000239,0.00000105,0.0000005
 5,-0.00000063,0.00000096,0.00001460,-0.00000494,0.00000957,-0.00000074
 ,-0.00000375,0.00000062,-0.00000401,0.00000065,-0.00000017,0.00000118,
 0.00000129,-0.00000060,-0.00000009,-0.00000123,0.00000017,0.00000028,-
 0.00000039,0.00000020,-0.00000008,0.00000023,-0.00000010,-0.00000036,0
 .00000016,-0.00000006,0.00000013,-0.00000073,-0.00000003,-0.00000046,-
 0.00000074,-0.00000053,0.00000225,-0.00000095,-0.00000175,0.00000195,0
 .00000007,-0.00000294,0.00000024,0.00000018,0.00000015,0.00000035,0.00
 000036,0.00000014,-0.00000056,-0.00000027,-0.00000027,0.00000016,0.000
 00003,0.00000010,-0.00000023,0.00000013,-0.00000012,-0.00000003,0.0000
 0005,0.00000011,0.00000027,-0.00000026,-0.00000044,-0.00000017,-0.0000
 0044,-0.00000030,0.00000014,0.00000077,0.,-0.00000017,-0.00000032,-0.0
 0000042,-0.00000023,-0.00000004,-0.00000022,-0.00000021,-0.00000011,0.
 00000027,0.00000020,0.00000009,0.00000024,0.00000005,0.00000003,0.0000
 0023,-0.00000002,0.00000006,0.00000030,0.00000026,0.00000039,0.0000001
 6,-0.00000039,0.00000016,-0.00000018,-0.00000050,-0.00000010,-0.000000
 36,0.,0.00000010,-0.00000037,0.00000031,-0.00000025,0.00000015,-0.0000
 0014,0.00000035,0.00000002,0.00000027,-0.00000003,0.00000033,-0.000000
 26,-0.00000009,-0.00000032,0.00000006,-0.00000015,0.00000028,0.0000002
 3,-0.00000031,0.00000007,0.00000007,-0.00000010,0.00000025,-0.00006478
 ,0.00001040,0.00019731,0.00012657,0.00017471,-0.00007288,-0.00006961,-
 0.00018147,-0.00012005,-0.00012450,-0.00020119,-0.00008818,-0.00000847
 ,0.00000190,-0.00000516,0.00010942,0.00021854,-0.00002332,-0.00000653,
 0.00000610,-0.00000375,-0.00049275,0.00035627,-0.00051040,0.00003568,-
 0.00001938,0.00001479,0.00003226,-0.00001885,0.00000567,0.00033349,0.0
 0004560,-0.00084720,0.00454123,-0.00418386,0.00307450,0.00498400,-0.00
 199628,0.00378161,-0.00990099,-0.01468425,0.00182716,-0.00045722,-0.00
 078386,0.00007805,0.00627653,0.01274247,0.00525298,0.00036424,0.000604
 57,0.00024756,-0.00842721,-0.03686557,-0.04881545,-0.00159379,0.001719
 22,-0.00246289,-0.00197036,0.00116641,-0.00250605,0.00629979,0.0418970
 0,0.04096914\\0.00000075,-0.00000222,0.00000240,0.00000249,-0.00000210
 ,-0.00000358,0.00000421,-0.00000136,-0.00000182,0.00000221,-0.00000039
 ,-0.00000232,-0.00000074,0.00000217,-0.00000098,-0.00000312,0.00000175
 ,-0.00000090,0.,0.00000088,0.00000018,0.00000080,-0.00000013,-0.000001
 28,0.00000039,0.00000224,-0.00000208,0.00000063,-0.00000400,0.00000489
 ,-0.00000534,0.00000153,0.00000249,-0.00000237,0.00000230,0.00000261,0
 .00000457,-0.00000324,-0.00000222,0.00000525,-0.00000375,-0.00000431,-
 0.00000315,0.00000254,0.00000061,-0.00000379,0.00000264,0.00000224,0.0
 0000223,-0.00000033,-0.00000454,0.00000137,0.00000025,-0.00000320,-0.0
 0000407,0.00000093,0.00000665,-0.00000349,0.00000099,0.00000587,-0.000
 00179,0.00000023,0.00000356,-0.00000417,0.00000220,0.00000056,-0.00000
 226,0.00000256,0.00000033,-0.00000197,0.00000225,0.00000172,-0.0000035
 5,0.00000060,0.00000624,-0.00000207,0.00000193,0.00000702,-0.00000278,
 0.00000290,-0.00000120,-0.00000216,0.00000261,-0.00000245,-0.00000241,
 -0.00000092,0.00000935,-0.00000445,-0.00000108,0.00000966,-0.00000630,
 0.00000175,0.00000680,-0.00000460,0.00000546,0.00000315,-0.00000280,-0
 .00000188,0.00000674,-0.00000732,0.00000145,0.00000365,-0.00000596,0.0
 0000546,0.00000147,-0.00000208,0.00000074,0.00000804,-0.00000096,-0.00
 000203,0.00000915,-0.00000462,0.00000226,0.00000722,-0.00000693,0.0000
 0560,0.00000291,-0.00000278,-0.00000250,0.00001048,-0.00000577,0.00000
 211,0.00000720,0.00000093,-0.00000119,-0.00000195,0.00000512,-0.000003
 70,-0.00000221,0.00000064,0.00000154,-0.00000428,0.00000483,-0.0000018
 5,-0.00000298,0.00000573,-0.00000574,-0.00000137,0.00000074,0.00000079
 ,-0.00000468,-0.00000200,0.00000298,-0.00000380,0.00000282,-0.00000204
 ,-0.00000472,0.00000802,-0.00000559,-0.00000271,-0.00000005,0.00000342
 ,-0.00000578,0.00000608,-0.00000212,-0.00000638,0.00000420,-0.00000485
 ,-0.00000229,0.00000128,0.00000026,-0.00000805,0.00000580,-0.00000287,
 -0.00000343,0.00000567,-0.00000503,-0.00000090,0.00000557,0.00000062,-
 0.00000930,0.00000242,0.00000117,-0.00000947,0.00000469,-0.00000248,-0
 .00000665,0.00000732,-0.00000518,-0.00000252,0.00000306,0.00000167,-0.
 00001130,0.00000601,-0.00000218,-0.00000754\\\@


 AND HERE I AM, FOR ALL MY LORE,
 THE WRETCHED FOOL I WAS BEFORE.
 CALLED MASTER OF ARTS, AND DOCTOR TO BOOT,
 FOR TEN YEARS ALMOST I CONFUTE
 AND UP AND DOWN, WHEREVER IT GOES
 I DRAG MY STUDENTS BY THE NOSE --
 AND SEE THAT FOR ALL OUR SCIENCE AND ART
 WE CAN KNOW NOTHING.  IT BURNS MY HEART.

                                       -- FAUST
 Job cpu time:       0 days  5 hours 49 minutes  0.7 seconds.
 File lengths (MBytes):  RWF=   2263 Int=      0 D2E=      0 Chk=     22 Scr=      1
 Normal termination of Gaussian 09 at Mon Feb 25 22:29:12 2019.
